<?xml version="1.0"?>
<VTKFile type="UnstructuredGrid"  version="0.1"  >
<UnstructuredGrid>
<Piece  NumberOfPoints="2446" NumberOfCells="4585">
<Points>
<DataArray  type="Float64"  NumberOfComponents="3"  format="ascii">0 0.41 0  0 0 0  2.2 0 0  2.2 0.41 0  0.2404508497187474 0.2293892626146237 0  0.25 0.2 0  0.2404508497187474 0.1706107373853764 0  0.2154508497187474 0.1524471741852423 0  0.1845491502812526 0.1524471741852423 0  0.1595491502812526 0.1706107373853764 0  0.15 0.2 0  0.1595491502812526 0.2293892626146237 0  0.1845491502812527 0.2475528258147577 0  0.2154508497187474 0.2475528258147577 0  1.1 0 0  1.1 0.41 0  0 0.205 0  0.55 0 0  0.55 0.41 0  0.275 0 0  0.275 0.41 0  1.65 0.41 0  1.65 0 0  0.8250000000000001 0.41 0  0.8250000000000001 0 0  1.375 0 0  1.375 0.41 0  1.925 0 0  1.925 0.41 0  1.5125 0.205 0  1.7875 0.205 0  0.6875 0.205 0  0.9625000000000001 0.205 0  1.2375 0.205 0  2.2 0.205 0  0.4687002074688797 0.2068568464730291 0  1.99375 0.2152743902439024 0  2.0625 0 0  2.0625 0.41 0  2.2 0.3075 0  0.4125 0 0  0.4125 0.41 0  1.7875 0.41 0  1.375 0.1486128048780488 0  1.5125 0 0  1.7875 0 0  1.5125 0.41 0  0.8250000000000001 0.2613871951219511 0  0.9625000000000001 0.41 0  0.9625000000000001 0 0  0.6875 0.41 0  0.6875 0 0  0.1375 0 0  0.1375 0.41 0  1.2375 0 0  1.1 0.1486128048780487 0  1.2375 0.41 0  1.65 0.1486128048780487 0  1.126715909090909 0.2793064024390244 0  1.676715909090909 0.2793064024390244 0  0.8517159090909092 0.1306935975609756 0  1.348284090909091 0.2793064024390244 0  0.34375 0.3032389320646208 0  1.894702181800738 0.1282910975492754 0  2.092797818199262 0.1282910975492754 0  1.85625 0.3075 0  0.61875 0.3075 0  0.61875 0.1025 0  0.3648540804333487 0.1240075933101478 0  0 0.3075 0  0 0.1025 0  2.099172119769978 0.25625 0  0.48125 0.09238439620688085 0  0.5781001037344399 0.2059284232365146 0  0.48125 0.3196743479159776 0  0.7265881057911006 0.3055240343720796 0  1.99375 0.08395950269330846 0  1.459960956013612 0.3075 0  1.569025960719943 0.2986889805672169 0  0.75625 0.08213100772579164 0  1.03125 0.3278689922742084 0  0.923871252904788 0.3078247185783941 0  1.959375 0.3126371951219512 0  1.749222215368287 0.1025 0  1.275777784631713 0.1025 0  2.2 0.1025 0  1.225938124459196 0.3075 0  1.550777784631713 0.1025 0  1.000777784631713 0.1025 0  1.44375 0.07430640243902442 0  1.16875 0.07430640243902437 0  1.899250267340833 0.2229966846119207 0  0.1020898364287272 0.3140258291809757 0  1.766482954545455 0.2934032012195123 0  0.3405058858996321 0.2119987970531874 0  0.7710785630958338 0.1710968191298857 0  1.046078563095834 0.2389031808701144 0  0.2 0.3400647632937836 0  1.421109702350723 0.2261157654379721 0  0.2800464974185557 0.08982544815605742 0  0.098916018031319 0.09171660955420841 0  2.13125 0 0  2.118919042110979 0.3422084711244843 0  1.30625 0.41 0  0.89375 0 0  1.597888256393107 0.2173787389261347 0  0.20625 0 0  1.829299675393195 0.07400700849299596 0  1.71875 0.41 0  1.16875 0.41 0  2.038220665644273 0.332420740103091 0  0.34375 0 0  0.417496017710808 0.2696595573092803 0  0.2 0.07687845740457822 0  0.9295982307099278 0.1343158415898188 0  0.07390688010811153 0.1697064032433452 0  0.5238366813727013 0.2578302467013575 0  0.05452951551825875 0.25625 0  0.5229630068078351 0.1548816096928243 0  1.452769549894695 0.1548122580621249 0  1.369219062229598 0.07430640243902442 0  1.30625 0 0  0.8504409521244898 0.3356935975609756 0  0.8821881244591965 0.205 0  1.720943423819132 0.1714577452753128 0  1.157188124459196 0.205 0  1.094219062229598 0.07430640243902437 0  1.03125 0 0  1.304056576180868 0.1714577452753128 0  1.67579304192913 0.07430640243902437 0  0.2751941921308361 0.3346083473122598 0  1.209670467133757 0.1362100266964769 0  1.025335513626278 0.1700681449722324 0  0.7562500000000001 0.41 0  1.58125 0 0  0.7567170593862014 0.2409196493502535 0  0.6926714215682891 0.1272249611432207 0  0.4139715849905988 0.3397932387114203 0  0.9840787304190477 0.2717749043358119 0  0.06875000000000001 0.41 0  0 0.35875 0  0.9281250000000001 0.06276726142697993 0  0.5507396469029935 0.3219409231578227 0  0.5504468037989405 0.09136885600634273 0  1.58125 0.41 0  1.631724228912893 0.3381867502687533 0  1.825608881788174 0.14499488549201 0  1.85625 0 0  1.44375 0 0  1.44375 0.41 0  1.85625 0.41 0  2.13125 0.41 0  0.7562500000000001 0 0  0.89375 0.41 0  0.4812500000000001 0 0  0.34375 0.41 0  0.4812500000000001 0.41 0  0.20625 0.41 0  0.06875000000000001 0 0  1.16875 0 0  0.61875 0 0  0.61875 0.41 0  1.03125 0.41 0  1.71875 0 0  1.99375 0 0  1.99375 0.41 0  1.340625 0.3489494290853124 0  1.134375 0.3489494290853123 0  1.700180620188976 0.3438659752031281 0  2.135782184673599 0.07126652247502523 0  1.668441847249787 0.2129203728327609 0  1.295782514339747 0.2378437748815763 0  0.8233075729931248 0.06842334294821524 0  1.409375 0.3520314716057996 0  0.403505597322782 0.182067236678212 0  0.378125 0.05794951541303489 0  0.3043468223249023 0.1518321115979534 0  2.129248544730567 0.1906135162504124 0  2.060771381434487 0.1989445750470348 0  2.013252586573865 0.1496169464686054 0  1.942766402200229 0.1734448904596831 0  1.895522487186454 0.06076163953489683 0  2.069553871656643 0.06605731020975725 0  1.274680914880868 0.3520219391081363 0  1.614713220494657 0.09473434380863296 0  0.7899021319497519 0.3149123934144827 0  0.69518737419149 0.0634051089053758 0  0.2971740475496061 0.2592172353407536 0  1.72990325744076 0.2380068107952482 0  1.356580098625191 0.2120393231351682 0  2.034370752044885 0.2668681600792073 0  1.51768709249349 0.3426260931494756 0  1.561883724969884 0.1650446847858835 0  1.197344062229598 0.2523725417393646 0  1.804085235518364 0.3468178408964637 0  1.817887819205233 0.2589243285818559 0  1.905897727272727 0.3485060975609756 0  0.6719798073392919 0.2688965171178177 0  0 0.05125 0  0.653125 0.35875 0  0.6396896119294488 0.1627615407790282 0  0.4274150154087412 0.1242548552168279 0  1.192836486056382 0.3562350748565544 0  0.8279124365364005 0.183856489168822 0  1.097485222388854 0.2083571153401724 0  1.28257088594801 0.2944411014911587 0  1.474860187679412 0.2504218616229368 0  1.406767003493824 0.2829282258560709 0  0.446875 0.04619219810344041 0  0.515625 0.04585361801037557 0  0.592043440706648 0.05125 0  1.845656689180403 0.1998310418452388 0  2.144958525570388 0.2909790873294231 0  0.6171090763650112 0.2492366900333857 0  2.2 0.15375 0  0.5145586920831158 0.3648371739579888 0  1.57794966442982 0.3540357145964566 0  0.721875 0.3633107922168974 0  0.0496154796471391 0.333125 0  0.5843750000000001 0.3662560860076676 0  0.5810878747760798 0.1474002776121195 0  1.508991196088596 0.1421783375065625 0  0.8840670607017558 0.2640994375393898 0  0.09776612425612034 0.2204896805326566 0  1.50436820029908 0.06143401634903343 0  1.223857000523521 0.0823554862453532 0  1.153316824384777 0.1289850171317837 0  2.148922302309752 0.1258841779285271 0  0.309375 0.04312325590431198 0  1.621993280276081 0.2841214267927899 0  1.550118654119087 0.2461998729100966 0  1.327182649291491 0.1216967252533594 0  1.051977450479407 0.1221382572915816 0  1.753125 0.04556020050186112 0  1.271875 0.04556020050186116 0  0.9816084133102366 0.05126138213476004 0  1.039051841454368 0.0572224914831029 0  0.9719230514536006 0.3480477870845102 0  1.94956388244759 0.1180512551534177 0  1.949997712993411 0.04965831614304109 0  1.771961817615021 0.1530278789497521 0  1.909246823951428 0.2812757146784527 0  0.2459536687882397 0.04668633953831142 0  1.948575539857022 0.2445328248721197 0  1.697271520964565 0.1233917627620729 0  0.7964897648514618 0.1211426571931604 0  1.065625 0.3689344961371042 0  1.085849084308977 0.3170853572226867 0  0.4702981435440001 0.260434880697798 0  1.577403511714593 0.05463601888079143 0  0.05622663515370135 0.05493816910862376 0  0.3267207591099919 0.3566194660323104 0  0.9003051618565143 0.3564049499960621 0  1.751571320346033 0.3651102912045228 0  0.1583785085108421 0.2994699345738728 0  0.1455283439499995 0.3542795598723423 0  2.2 0.35875 0  0.2347662494194072 0.298325008655211 0  0.1527284455616188 0.1065771775690181 0  0.1382139529076665 0.05427454456341477 0  0.8749341636311069 0.05110114999892954 0  0.643661668713109 0.05693499781019222 0  1.466879772203159 0.3611261772912453 0  1.990280163552011 0.3564754268533217 0  1.17471064520912 0.2990917256188288 0  0.5202693090594349 0.206382495511728 0  0 0.25625 0  2.2 0.25625 0  2.2 0.05125 0  0 0.15375 0  1.853978576207987 0.35875 0  0.9787513713939683 0.1487523696999336 0  0.240625 0.3722153812029779 0  1.515638456102889 0.2882700110184686 0  0.09048297387599738 0.3637717362208066 0  2.150453692751374 0.2387066338105111 0  1.323782677156475 0.04897634338873398 0  0.8074131292871642 0.3624701995505916 0  1.409375 0.03715320121951221 0  1.406484531114799 0.1087852750766809 0  1.134375 0.03715320121951218 0  1.627401732573545 0.04552157221025036 0  0.1170173172005315 0.1427610859166811 0  2.045405893604797 0.1105340662939892 0  1.255408269734577 0.1577307500159216 0  2.028125 0.03707597992059326 0  0.4743610090857199 0.1421513964721819 0  0.9354010469015898 0.250631300585664 0  0.04420832937638274 0.128125 0  0.8922386349349938 0.0992956419364831 0  0.1197849154434487 0.2663398672460083 0  1.248258025468107 0.2565907092181813 0  0.3746885856929528 0.370723531618974 0  1.203125 0.0366132337404304 0  0.5724622277005015 0.2751253816079333 0  0.3365425205162783 0.08395777655057959 0  2.072662025974815 0.2975086504196739 0  0.4581080832182547 0.3648371739579888 0  0.3874522734668214 0.2295447548840689 0  0.7827853612484443 0.04106550386289586 0  1.887722846421017 0.1760882698830035 0  1.472640588990488 0.1118278026240017 0  1.865937103925594 0.2604137786483804 0  1.463913572748262 0.2030442564990043 0  1.376426316059077 0.3186741374914345 0  0.6641993820150034 0.3141688596240831 0  0.2943117490824315 0.2130987422685822 0  0.3478153998082709 0.1666571081082676 0  0.3427990510599805 0.2575950027870776 0  0.7997118993855807 0.2216171933356366 0  
[...]
<PointData  Scalars="f_37"> 
<DataArray  type="Float64"  Name="f_37"  format="ascii">4.0170849112434137e-01  4.9275837852518506e-01  -4.5280021877583853e-10  -5.2015707161711656e-10  -4.7055679060745126e-01  -3.7536775150455065e-01  -4.1305695598299785e-01  -6.6416211962475358e-01  -6.2776797338182855e-01  4.5434137677081582e-01  1.9889102085848582e+00  3.0360202587334723e-01  -1.2461345799080508e+00  -7.1277063310091915e-01  1.7588008352823328e-01  1.7541833324039288e-01  7.7096027169855930e-01  7.6753664587487086e-02  9.1805629757091431e-02  4.3668475012542514e-02  1.1870122900437857e-02  8.8082497979057414e-02  8.8160312648082134e-02  2.1920696996225980e-01  2.2033416672950287e-01  1.3160470388075121e-01  1.3162381793619043e-01  4.3400341184781137e-02  4.3564132723498003e-02  1.0973351854419601e-01  6.5795991134815490e-02  2.4413344066472581e-01  1.9741683450086006e-01  1.5366970330251881e-01  -3.5109523878426045e-10  3.2464707990377112e-01  3.2857690572981310e-02  2.1487783419674826e-02  2.2696378483516133e-02  -2.4779628416452670e-10  -7.7901699338881816e-02  -6.7315092544002392e-02  6.6149611025911770e-02  1.3175645814108877e-01  1.0983358576127839e-01  6.6123650825937158e-02  1.1027039992392855e-01  2.1854302710443327e-01  1.9792803449056862e-01  1.9786587308275963e-01  2.2743221685473514e-01  2.3051563863619864e-01  4.0880057415861915e-01  3.2332310618455812e-01  1.5367902490270507e-01  1.7557775672213688e-01  1.5371376302486880e-01  8.7777936152062377e-02  1.7123599161974074e-01  8.3556930332391630e-02  2.1486134268536261e-01  1.3598049065502976e-01  -3.4262771029111433e-01  4.8652564999266346e-02  1.7084040987521674e-02  5.4835876411290146e-02  2.1886366757171385e-01  2.1735298811706194e-01  -6.2195403835920593e-01  5.0203047141182322e-01  5.8782863226913373e-01  1.6074865227679560e-02  2.1255115766094273e-02  3.2555580082294816e-01  3.9438397704018711e-02  2.3038155228505297e-01  3.2884085409304147e-02  1.1807179590364203e-01  1.0067264580863776e-01  2.2860697156627566e-01  1.8644334939443452e-01  2.0357044214431202e-01  3.8391820517567794e-02  7.1880363694159191e-02  1.4759656565535706e-01  -1.1695449412844574e-09  1.5547330109376134e-01  1.0360372638035045e-01  1.9153932042709618e-01  1.2077782112964995e-01  1.6468077603859926e-01  4.7956957972328747e-02  4.3969160792190398e-01  6.9155311334364464e-02  -7.1177349062414763e-01  2.2705994716552202e-01  1.8420617247412607e-01  9.8291787133197639e-02  1.2435466200784015e-01  -1.7377074664554751e-01  5.3712206722684230e-01  1.0741585646741049e-02  1.2819589628549691e-02  1.4265786331711214e-01  2.0891935041961632e-01  9.6103048228948482e-02  2.4344365072450802e-01  5.9167084174048805e-02  7.6597820613004103e-02  1.6428912451849326e-01  2.5883545580590337e-02  -5.8595380545203364e-02  -2.0839948970192584e-01  1.3964771723929048e-01  2.0274489374116911e-01  9.1683150169632555e-01  2.7907809733499817e-01  7.0997603034884271e-01  3.1970062469483873e-01  1.1929045161750217e-01  1.3270954279547298e-01  1.4297302737817488e-01  2.1491191011584199e-01  2.0995084569800496e-01  7.6415106664289925e-02  1.6643066356792949e-01  1.7655014100754648e-01  1.8642533790623184e-01  1.4304684450657271e-01  8.3631555919947961e-02  -1.1153397357250663e-01  1.5809581352712604e-01  1.8750100846277684e-01  2.2917695503564542e-01  9.8949379322162731e-02  2.2904597018268055e-01  2.3487023074257482e-01  -9.0934243308472815e-02  1.9403263366714160e-01  3.8911348809741625e-01  4.1430633938718797e-01  2.0328167778187509e-01  1.3669032434725858e-01  1.3075277151724474e-01  9.8551313162026810e-02  9.0821543608250468e-02  5.9666054763396786e-02  5.4610255002693842e-02  1.2074713983889773e-01  1.2043494466885341e-01  5.4588014076653993e-02  1.1036473311860313e-02  2.3025233682602023e-01  2.0844990497511445e-01  -3.9939481969115127e-02  -6.6633694068618549e-02  -1.2551221923491679e-02  1.7098467651805671e-01  4.7990645709641716e-01  1.6437888554605612e-01  1.9154930590632169e-01  1.9041861536502094e-01  1.8633837520238258e-01  7.6815308562996565e-02  3.2823506361706598e-02  3.2435119182865027e-02  1.3710945373026470e-01  1.7005100186928099e-01  7.9791384366406870e-02  1.0250084234829530e-02  8.4814705327024134e-02  1.4436341803614755e-01  2.1987859489827644e-01  1.2622168031345285e-01  -4.7409678215588780e-01  -1.3477562536399137e-01  -5.5616196635247828e-01  1.1292463805560130e-02  2.2174951227893591e-02  2.9731873432382618e-02  4.0994692797321583e-02  4.8465816437399577e-02  2.0693375410229229e-02  1.4781741705192331e-01  9.3419369817265466e-02  2.2347326475252460e-01  2.3088029834823381e-01  -5.9008322916149747e-01  7.5031084140250420e-02  1.3466461440371644e-01  2.6406717265446817e-02  1.0877806898060979e-01  1.0186143779784605e-01  1.6004002092742575e-01  6.3247667192472420e-02  6.0952259087719243e-02  4.6866843644653287e-02  2.4079060173371095e-01  5.0507346677922638e-01  2.1757356034971387e-01  2.5464696579833340e-01  -2.3373721156242541e-01  1.6079471347897759e-01  2.1833321120201765e-01  1.7589498549297036e-01  1.4648916503196874e-01  1.1574201737421121e-01  1.2664706257727376e-01  -6.7603420132629211e-02  1.2030274956352425e-02  1.6034262160888615e-01  5.6526748576775240e-02  8.7898882199112273e-03  2.6518103624495104e-01  -3.5109523878426045e-10  3.7517844161685202e-02  9.9243494648459440e-02  2.3068916801631711e-01  4.3828228436197048e-01  1.5153508504156851e-01  2.6803203785197305e-01  1.1028231961636627e-01  2.0959245356491232e-01  1.1130751163361920e+00  1.1114601574109990e-01  1.5583518586613096e-01  1.6704716043787815e-01  8.1752639106059156e-03  -5.6539018318282633e-02  9.2242147021825704e-02  1.0372185707905349e-01  1.3939600986145470e-01  1.8328743474806619e-01  7.1211535312483573e-02  1.4821001247713983e-01  1.9491312388854740e-01  1.8545744545595411e-01  1.9595963825733825e-01  3.9894779661567764e-02  3.9692563230283272e-02  6.8278402643352415e-02  4.6410346490646133e-02  7.9180061700791268e-02  4.0126006973812994e-02  8.0243778800829446e-02  2.2312893192207595e-01  1.8109094698566630e-01  1.7785786163093323e-01  1.6086695053961056e-01  9.9253043369692179e-02  4.9873600772223975e-01  -1.0232132618017152e-01  2.0756678515171556e-01  7.1519610163508468e-02  1.9781446394240335e-01  2.9701028799360912e-01  -5.2015707161711656e-10  -2.3022257356279346e-01  3.3855938582319706e-01  4.0295705603034332e-01  2.1194597786431907e-01  2.1521696594243289e-01  1.1687335536827800e-01  3.3573883311339939e-02  1.6363819900834758e-01  4.1833932498632687e-01  6.6228675690835748e-01  -5.0865690748749293e-10  -9.1171982264428947e-10  7.1938056915990578e-01  5.5258967797976330e-02  1.9493991610345016e-01  6.3084979772261129e-02  1.0918189404168988e-01  3.7993441548868434e-01  7.9193041325163593e-03  1.4003318610703819e-01  2.2168648212436406e-01  1.2627819639577437e-01  1.2676778207204345e-01  1.7014843059909948e-01  9.1400134537940769e-02  8.0390021695094016e-01  2.4556616440322081e-02  1.5082707979218754e-01  2.7354698404964597e-02  1.4175667023252217e-01  2.0163507505744951e-01  6.7034545730545358e-01  2.0878065540503432e-01  6.3854309554180089e-01  1.5194340314255045e-01  -8.5815813820583509e-02  1.5910612723495579e-01  2.3819668114856440e-01  -2.6837229953139957e-01  2.0316214165140265e-02  -3.4088176158262776e-02  -5.4978014691293942e-01  2.2631315834464774e-01  4.9782952378778687e-02  1.1613237786470604e-01  5.3288429994888718e-02  1.1749831958915147e-01  1.3142513932342104e-01  2.2903816218848558e-01  -5.5634313232392585e-01  -7.6457739518688106e-01  -7.1332074781798760e-01  2.2252916676017109e-01  7.6246712557909810e-02  6.7955128499185516e-02  1.5128120641544032e-02  2.3514066941943665e-01  2.3055157233041021e-01  1.9130048267456667e-01  1.8686856638100990e-01  1.7715125127642978e-01  1.2848576325022668e-01  -3.7876471403554568e-01  2.7765300474354757e-02  9.5245426800531607e-02  2.6256152483527206e-01  2.3685843485412406e-01  6.1935850022323061e-02  8.4392006354521010e-01  3.3416987921956402e-02  5.9697541628856259e-03  1.6648275406520904e-02  1.9955695359247589e-02  4.6098535697692639e-01  2.3162620580000381e-01  9.3181968802029641e-02  6.4788865571319215e-02  3.0917574392961587e-02  3.3796472719140203e-01  1.3046651541543713e-01  1.6003987900934560e-01  1.1484740927233543e-01  9.0783441766091960e-02  1.0397110275314374e-01  2.1426018199149471e-01  8.1908051057973622e-02  7.8512587965258909e-02  1.9178317065863915e-01  1.8957545445877988e-01  6.2580237481160038e-03  6.4951471421966500e-03  3.9916373626800422e-01  2.2894135287683517e-01  2.2772667306329039e-01  2.0374240827540488e-01  2.0989698766121720e-01  9.0191340807682693e-02  6.4285050445731975e-02  5.3005488314794964e-02  1.0387356907787432e-01  4.0454350780661764e-02  -6.6871778136596310e-02  -2.8773865316861647e-01  6.0279136525893166e-02  1.7954600193683506e-01  7.4010724039055786e-02  8.5873501867668817e-02  1.9781865761948308e-01  -1.3815477615663257e-01  2.5560265965336154e-01  2.2812383987726753e-02  2.0293712012162726e-01  1.0321022926770405e-01  1.5417455729769958e-01  1.6861090160909888e-02  1.1687443656392311e-01  2.7341508611236703e-01  1.8068341783005853e-01  -2.9126391787620616e-02  9.7407502112338479e-02  2.2439935789464155e-01  -2.3871119296065560e-01  -4.8292565830685488e-02  2.3167683379842482e-01  1.7054998537273142e-01  2.1394372270917825e-01  1.7091667155101981e-01  1.6959655791981595e-01  1.2858101630824719e+00  6.2817844438379754e-03  1.4038992361301611e-01  3.3588359820523606e-02  2.1432526300691210e-01  4.8966592062900549e-02  5.4682081639725544e-02  4.9308199295473684e-02  4.3235467209061434e-02  1.1000982265609734e-01  7.7750067912180199e-02  8.5323760492170109e-02  8.7275631287468625e-02  4.8969046196036703e-01  2.0945633518531642e-01  -3.4711640788310544e-01  4.0213524542635798e-01  2.6059441469380922e-02  1.2546741114504761e-01  2.4271442073746735e-01  1.9260726056478583e-01  5.3713075530854937e-01  8.5093216259554821e-02  -3.7152826855050183e-02  6.7205572840072253e-02  2.3154181762540033e-01  2.0154439941949240e-01  2.2831971415926108e-01  1.1341166892308346e-01  7.8133836337902707e-01  1.6576926631363637e-01  2.1481717512549561e-01  2.6686634879323146e-02  1.2068477763525767e-01  -1.6154495920512355e-02  2.2492509135406205e-01  1.0970256316771615e-01  -4.2039253962415292e-02  2.8310189431972921e-01  3.8425894979096037e-01  1.5622794299317150e-01  3.4655458764130592e-01  -5.7145512748096172e-01  1.5512560096396594e-01  3.4404739304798804e-01  2.1312209189942743e-01  5.8175032789807923e-01  1.0687852722669144e-01  7.2223749767735074e-02  1.4725411963347318e-01  7.4575466820167802e-02  1.4493324185120085e-01  1.3275054878610015e-01  1.3414838809885407e-01  1.7739907574163682e-01  8.2047785730532036e-02  1.3753377590162313e-01  3.6009965020756575e-02  7.3684416422187127e-01  -1.5944273711754631e-01  1.6076549448239069e-01  1.5260506883923766e-01  5.6557604181061882e-01  -1.7073401970547800e-02  9.5384557077805840e-02  8.5058335241558466e-02  -5.2169704501355285e-01  -1.1516461176590877e-01  -4.4403437453460565e-01  5.3408666772767488e-01  3.5256100095116100e-01  9.1484839705608681e-02  9.6464175049760098e-02  1.0674003760847088e-01  2.3822260261080042e-01  6.0617199511388872e-02  2.2877096189543494e-01  2.1813017033701733e-02  2.7545619758326933e-02  1.4194405171626506e-01  -4.4063088616672164e-01  1.4565533920760869e-02  1.3261982399370657e-02  5.8830436597035844e-03  6.8289969100509815e-02  1.0469522397814141e-01  1.8677920607451326e-01  1.8959425752803563e-01  1.9295264678326191e-01  2.2795809139035800e-01  1.2648245815454828e-01  1.7589961577712326e-01  1.9992967550815316e-01  2.0676108847551694e-01  2.1486335570439663e-01  2.1757548531938353e-01  5.6271880015111150e-03  1.2711690142595130e-02  1.8974421306174324e-01  3.8766587777577056e-02  1.4503169424574410e-02  2.2929041423012267e-01  1.5906619704020830e-01  2.0270900331284472e-01  5.4472090153791376e-02  6.3426165873426629e-02  2.9430916349605313e-01  -1.0668359483223533e-01  -6.2482851228704069e-02  2.0319086109249693e-01  -6.2533586106254879e-01  1.9798755341854662e-01  2.2197421103599022e-01  1.6580082226297058e-01  1.6979357510491258e-01  1.4239554916071062e-01  1.3709549876547736e-01  1.3175540812609332e-01  1.6897148545534302e-01  1.2264930394663828e-01  1.2508478768490474e-02  1.5963050055558217e-01  2.2415116652834033e-01  9.9185394388083103e-02  -6.3402299594459477e-01  -6.0179554936982282e-01  -8.2300068229572074e-02  -7.5157935653313385e-02  7.7680919792682074e-02  1.8093231237033419e-01  1.7512744057290069e-01  2.0068776713374853e-01  5.5162413215464903e-02  1.5351857610116576e-01  1.9653947401884211e-01  6.2325389867454090e-02  2.2389021789981109e-01  1.9961440150350654e-01  1.2591839756926451e-01  8.2844732147231051e-02  3.2937417600516328e-02  2.7230126240869415e-02  3.8238424678115293e-02  1.4799904335218950e-01  1.7262529438667581e-01  1.6447176661266291e-01  -4.1719622706716794e-02  1.3733385567907197e-01  1.8166638149196748e-01  5.1412618005484412e-03  1.6851732042468936e-02  1.7008137955636884e-01  1.2632927839315850e-01  1.1511820542405146e-01  7.1352954464034654e-02  1.8123874713356805e-01  7.0891296172841969e-02  2.3101549367406718e-01  1.2676533246512819e-01  2.3372719222352620e-01  5.0812238746544584e-03  2.0356975836558777e-01  -7.7299112547504364e-02  -6.5986092675117250e-02  -4.6187470292666150e-02  4.5575441849433479e-01  8.6546683319118439e-02  1.3542665085282338e-01  3.6505948271316202e-01  2.2050498582529265e-01  2.2510383935660849e-01  -1.7451837675435362e-02  1.5074696308004790e-01  3.6866820619395883e-02  1.4183056675519512e-01  1.0196346168841594e-02  2.1676510456997816e-01  1.9205654211055534e-01  1.5921614535938899e-01  9.2946775432060175e-02  3.8921651026330967e-02  1.4813814447443863e-01  2.7244389685941801e-02  3.8549619122672782e-02  7.7086594299502528e-02  3.0157000088606507e-02  2.2465949972551677e-01  1.2152051363660890e-01  1.6425378992302414e-01  -2.8578788950661965e-01  1.3823972161134918e-01  1.4177098645790659e-01  1.6462422302215515e-01  1.0557822805687872e-01  1.1260009704289428e-01  4.6350208488239814e-02  2.3097750157374577e-01  1.2105747704603842e-01  1.2346157782253871e-01  7.9595651033982626e-02  4.9102426939719813e-02  7.8691721065245634e-02  -6.0741871000987352e-02  2.4886642655355853e-01  5.9163369554575337e-02  8.4868626959144128e-02  1.4152022193179301e-01  4.3746499142603111e-02  1.1244668109335627e-01  2.1863627346546355e-01  1.8079786784756957e-01  1.9450889618349360e-01  7.3236756435349526e-01  -2.8681964398384374e-01  9.5780204943215444e-02  1.9713391515691289e-01  2.1981981664365730e-02  1.7870733821452333e-02  1.8621302523670241e-01  2.2735307348630826e-01  1.3354055168926038e-01  7.8365861653112923e-01  1.5239438759916821e-01  4.3941944975020256e-02  4.5572008796271012e-02  3.4240241312434477e-01  1.8167537843940172e-02  2.9490664916582016e-01  2.3623373631063413e-01  2.3441733487278740e-01  2.0637756858394385e-01  2.5588472128958626e-02  6.3038645504206126e-02  1.8149312215978694e-01  5.8463046593341610e-02  8.0216476428330130e-02  5.7004879329851182e-02  3.8031200125420467e-02  5.0621002958364308e-03  -7.0110556520611919e-02  1.9865911058339752e-01  1.0055559117651498e-01  2.1877128127692605e-01  2.0114609009075093e-01  9.8649659865491721e-02  8.8934062238873943e-02  4.6375726411880641e-01  4.6416165841142026e-02  -7.0697933514712641e-01  1.0140706795257190e-01  -5.0425655373065881e-01  -4.4885766131835786e-01  3.6245874909839171e-01  2.4569640469539361e-01  9.6330003785482884e-02  1.7221735885943817e-01  1.0643322568382332e-01  -3.6110707077808196e-02  1.3697336676684521e-01  1.9794029517484316e-01  2.3300266076871429e-01  2.8520632653514827e-01  5.1990720677384798e-02  2.3143613976986413e-01  4.1389635040204008e-02  1.5510656584971430e-01  2.0784466629809026e-01  1.0138853245884680e-01  6.2039972225113295e-02  1.8156880715649232e-01  1.5999882588311354e-01  1.0803448357849310e+00  7.2251197728651767e-02  1.9409497084063190e-01  1.5018355825929591e-01  1.5625327200900976e-01  1.6414852304874150e-01  8.5736194873456240e-02  1.1581119777616609e-01  6.4856414190276490e-02  5.8025714480345450e-02  1.6998011770505018e-02  1.1219621456452757e-01  3.6185274190790026e-02  4.9321256250685713e-01  4.9146313516804518e-01  1.0528376185173154e-01  4.7945377336635793e-02  1.4499168698079745e-01  5.7972129375518877e-01  -2.3798558169629384e-02  1.0389268668083207e-01  1.8050366769626805e-01  1.4379208282567077e-01  6.3219932487711100e-02  3.4979779906398750e-02  1.2252026948107217e-02  1.3665235677976920e-01  -1.6866776264408817e-01  1.5067585627063143e-01  5.7876254832844774e-02  2.0611349203666790e-01  7.4465386223542762e-01  -5.5815351861442764e-01  -7.6680932475891708e-02  1.5876315958025435e-02  2.2719777555498999e-01  5.9352066945926679e-02  1.5578175340566519e-01  9.1049210433019667e-02  5.1246528106394892e-02  -5.0865690748749293e-10  1.7599621241282717e-01  1.5689634443490488e-01  1.7590682154005802e-01  1.7127123825985066e-01  2.1480835614122484e-01  8.8059395917625877e-02  2.5171073840525826e-01  5.5509602502860911e-03  1.8838502535247253e-01  2.1649026221591185e-02  1.9048407019321634e-01  3.6273330845550866e-01  3.4433408263053794e-01  4.8515199818470731e-02  2.0750077962955135e-01  1.2894475977163131e-01  1.1951250009670826e-01  1.1606845491073919e-01  1.1268976713913439e-01  1.2152177976372867e-01  5.2541929100388005e-02  2.2260888527537420e-01  2.3139262209400741e-01  1.9136622062799921e-01  2.2640053385816772e-01  2.1472528268066954e-01  1.3124833288453244e-01  1.2464890832164785e-01  2.2565798527933489e-01  1.7486127795588979e-01  5.1716191499234385e-02  2.0167081441793028e-01  2.5009740835028510e-01  2.3867601556042675e-01  2.2994097667715882e-01  -1.3273005308600977e-09  1.6612852461261457e-01  1.5144584876091782e-01  1.4714924652493799e-01  2.1728645690017775e-01  1.4712355601234886e-01  2.3028597588769406e-01  7.4966296304358249e-02  2.1421646925583168e-01  1.7319540953581003e-01  1.9839992249005256e-01  -7.2452569704217251e-01  3.0806389910452092e-02  1.8509052266626813e-01  2.1836365651322606e-01  7.1239575760168358e-02  1.1483968879835207e-01  8.9501893506716126e-02  -4.4213796999429567e-02  2.2695946240411644e-01  2.2742182019240398e-01  -6.2679757819743180e-03  -3.9919977602002399e-01  6.8566096239300614e-02  1.0129821485657321e-02  1.1134884141110749e-02  4.6384333108240453e-03  6.1958827114164783e-02  5.2289538390127684e-02  3.3885271924568403e-02  1.8354310206799523e-01  1.4403667155402999e-01  7.4005333789634739e-02  6.7904200542443963e-02  9.6944654195595226e-02  2.3716146749182496e-01  1.6252867191462816e-01  1.6531174818164440e-01  -1.5999863865165323e-01  1.3769485618971086e-01  1.5689281232859853e-01  1.8247230107205131e-01  1.8076222577724307e-01  2.2062099648088099e-01  -6.3840782717241697e-03  6.4320186869217325e-03  1.4595273633540970e-01  4.9064222248656164e-01  1.5143736158946944e-01  4.8001030653183374e-01  2.9227096115212792e-01  4.9014633183344904e-02  1.7138002966593385e-01  -6.2599300362899540e-02  2.3034997517399289e-01  -3.5109523878426045e-10  1.0759209982732045e+00  8.6969492557297845e-01  9.9543641143734013e-02  9.4611872567888403e-02  -1.8277596559342746e-01  4.4597112356134894e-02  5.0216333601125585e-01  -2.8541866814875794e-01  4.4598730006624909e-01  4.4947317180278684e-01  5.6191582417001240e-01  4.4749778162807208e-01  4.1287078144640658e-02  1.7592383375264281e-02  1.8670573131730286e-01  1.0711591554893485e-01  1.0145034660125808e-01  9.9758411453901435e-02  1.3610715079640545e-01  1.6006916548899763e-01  9.2901831044079314e-02  6.1202930774177947e-02  1.1163161654780661e-01  6.7059021420231291e-02  4.4115578532065297e-02  4.2098899362513584e-02  -1.4521448938150411e-01  -3.3901241857338027e-01  7.5522512287695728e-02  2.2277106706239266e-01  7.0298633748109463e-02  1.6160531172825501e-01  1.2278635453586564e-01  2.0548221745372056e-01  3.9267408872328657e-02  5.1450039625921748e-02  -4.5804303573918841e-02  1.49698751979