<?xml version="1.0"?>
<VTKFile type="UnstructuredGrid"  version="0.1"  >
<UnstructuredGrid>
<Piece  NumberOfPoints="2446" NumberOfCells="4585">
<Points>
<DataArray  type="Float64"  NumberOfComponents="3"  format="ascii">0 0.41 0  0 0 0  2.2 0 0  2.2 0.41 0  0.2404508497187474 0.2293892626146237 0  0.25 0.2 0  0.2404508497187474 0.1706107373853764 0  0.2154508497187474 0.1524471741852423 0  0.1845491502812526 0.1524471741852423 0  0.1595491502812526 0.1706107373853764 0  0.15 0.2 0  0.1595491502812526 0.2293892626146237 0  0.1845491502812527 0.2475528258147577 0  0.2154508497187474 0.2475528258147577 0  1.1 0 0  1.1 0.41 0  0 0.205 0  0.55 0 0  0.55 0.41 0  0.275 0 0  0.275 0.41 0  1.65 0.41 0  1.65 0 0  0.8250000000000001 0.41 0  0.8250000000000001 0 0  1.375 0 0  1.375 0.41 0  1.925 0 0  1.925 0.41 0  1.5125 0.205 0  1.7875 0.205 0  0.6875 0.205 0  0.9625000000000001 0.205 0  1.2375 0.205 0  2.2 0.205 0  0.4687002074688797 0.2068568464730291 0  1.99375 0.2152743902439024 0  2.0625 0 0  2.0625 0.41 0  2.2 0.3075 0  0.4125 0 0  0.4125 0.41 0  1.7875 0.41 0  1.375 0.1486128048780488 0  1.5125 0 0  1.7875 0 0  1.5125 0.41 0  0.8250000000000001 0.2613871951219511 0  0.9625000000000001 0.41 0  0.9625000000000001 0 0  0.6875 0.41 0  0.6875 0 0  0.1375 0 0  0.1375 0.41 0  1.2375 0 0  1.1 0.1486128048780487 0  1.2375 0.41 0  1.65 0.1486128048780487 0  1.126715909090909 0.2793064024390244 0  1.676715909090909 0.2793064024390244 0  0.8517159090909092 0.1306935975609756 0  1.348284090909091 0.2793064024390244 0  0.34375 0.3032389320646208 0  1.894702181800738 0.1282910975492754 0  2.092797818199262 0.1282910975492754 0  1.85625 0.3075 0  0.61875 0.3075 0  0.61875 0.1025 0  0.3648540804333487 0.1240075933101478 0  0 0.3075 0  0 0.1025 0  2.099172119769978 0.25625 0  0.48125 0.09238439620688085 0  0.5781001037344399 0.2059284232365146 0  0.48125 0.3196743479159776 0  0.7265881057911006 0.3055240343720796 0  1.99375 0.08395950269330846 0  1.459960956013612 0.3075 0  1.569025960719943 0.2986889805672169 0  0.75625 0.08213100772579164 0  1.03125 0.3278689922742084 0  0.923871252904788 0.3078247185783941 0  1.959375 0.3126371951219512 0  1.749222215368287 0.1025 0  1.275777784631713 0.1025 0  2.2 0.1025 0  1.225938124459196 0.3075 0  1.550777784631713 0.1025 0  1.000777784631713 0.1025 0  1.44375 0.07430640243902442 0  1.16875 0.07430640243902437 0  1.899250267340833 0.2229966846119207 0  0.1020898364287272 0.3140258291809757 0  1.766482954545455 0.2934032012195123 0  0.3405058858996321 0.2119987970531874 0  0.7710785630958338 0.1710968191298857 0  1.046078563095834 0.2389031808701144 0  0.2 0.3400647632937836 0  1.421109702350723 0.2261157654379721 0  0.2800464974185557 0.08982544815605742 0  0.098916018031319 0.09171660955420841 0  2.13125 0 0  2.118919042110979 0.3422084711244843 0  1.30625 0.41 0  0.89375 0 0  1.597888256393107 0.2173787389261347 0  0.20625 0 0  1.829299675393195 0.07400700849299596 0  1.71875 0.41 0  1.16875 0.41 0  2.038220665644273 0.332420740103091 0  0.34375 0 0  0.417496017710808 0.2696595573092803 0  0.2 0.07687845740457822 0  0.9295982307099278 0.1343158415898188 0  0.07390688010811153 0.1697064032433452 0  0.5238366813727013 0.2578302467013575 0  0.05452951551825875 0.25625 0  0.5229630068078351 0.1548816096928243 0  1.452769549894695 0.1548122580621249 0  1.369219062229598 0.07430640243902442 0  1.30625 0 0  0.8504409521244898 0.3356935975609756 0  0.8821881244591965 0.205 0  1.720943423819132 0.1714577452753128 0  1.157188124459196 0.205 0  1.094219062229598 0.07430640243902437 0  1.03125 0 0  1.304056576180868 0.1714577452753128 0  1.67579304192913 0.07430640243902437 0  0.2751941921308361 0.3346083473122598 0  1.209670467133757 0.1362100266964769 0  1.025335513626278 0.1700681449722324 0  0.7562500000000001 0.41 0  1.58125 0 0  0.7567170593862014 0.2409196493502535 0  0.6926714215682891 0.1272249611432207 0  0.4139715849905988 0.3397932387114203 0  0.9840787304190477 0.2717749043358119 0  0.06875000000000001 0.41 0  0 0.35875 0  0.9281250000000001 0.06276726142697993 0  0.5507396469029935 0.3219409231578227 0  0.5504468037989405 0.09136885600634273 0  1.58125 0.41 0  1.631724228912893 0.3381867502687533 0  1.825608881788174 0.14499488549201 0  1.85625 0 0  1.44375 0 0  1.44375 0.41 0  1.85625 0.41 0  2.13125 0.41 0  0.7562500000000001 0 0  0.89375 0.41 0  0.4812500000000001 0 0  0.34375 0.41 0  0.4812500000000001 0.41 0  0.20625 0.41 0  0.06875000000000001 0 0  1.16875 0 0  0.61875 0 0  0.61875 0.41 0  1.03125 0.41 0  1.71875 0 0  1.99375 0 0  1.99375 0.41 0  1.340625 0.3489494290853124 0  1.134375 0.3489494290853123 0  1.700180620188976 0.3438659752031281 0  2.135782184673599 0.07126652247502523 0  1.668441847249787 0.2129203728327609 0  1.295782514339747 0.2378437748815763 0  0.8233075729931248 0.06842334294821524 0  1.409375 0.3520314716057996 0  0.403505597322782 0.182067236678212 0  0.378125 0.05794951541303489 0  0.3043468223249023 0.1518321115979534 0  2.129248544730567 0.1906135162504124 0  2.060771381434487 0.1989445750470348 0  2.013252586573865 0.1496169464686054 0  1.942766402200229 0.1734448904596831 0  1.895522487186454 0.06076163953489683 0  2.069553871656643 0.06605731020975725 0  1.274680914880868 0.3520219391081363 0  1.614713220494657 0.09473434380863296 0  0.7899021319497519 0.3149123934144827 0  0.69518737419149 0.0634051089053758 0  0.2971740475496061 0.2592172353407536 0  1.72990325744076 0.2380068107952482 0  1.356580098625191 0.2120393231351682 0  2.034370752044885 0.2668681600792073 0  1.51768709249349 0.3426260931494756 0  1.561883724969884 0.1650446847858835 0  1.197344062229598 0.2523725417393646 0  1.804085235518364 0.3468178408964637 0  1.817887819205233 0.2589243285818559 0  1.905897727272727 0.3485060975609756 0  0.6719798073392919 0.2688965171178177 0  0 0.05125 0  0.653125 0.35875 0  0.6396896119294488 0.1627615407790282 0  0.4274150154087412 0.1242548552168279 0  1.192836486056382 0.3562350748565544 0  0.8279124365364005 0.183856489168822 0  1.097485222388854 0.2083571153401724 0  1.28257088594801 0.2944411014911587 0  1.474860187679412 0.2504218616229368 0  1.406767003493824 0.2829282258560709 0  0.446875 0.04619219810344041 0  0.515625 0.04585361801037557 0  0.592043440706648 0.05125 0  1.845656689180403 0.1998310418452388 0  2.144958525570388 0.2909790873294231 0  0.6171090763650112 0.2492366900333857 0  2.2 0.15375 0  0.5145586920831158 0.3648371739579888 0  1.57794966442982 0.3540357145964566 0  0.721875 0.3633107922168974 0  0.0496154796471391 0.333125 0  0.5843750000000001 0.3662560860076676 0  0.5810878747760798 0.1474002776121195 0  1.508991196088596 0.1421783375065625 0  0.8840670607017558 0.2640994375393898 0  0.09776612425612034 0.2204896805326566 0  1.50436820029908 0.06143401634903343 0  1.223857000523521 0.0823554862453532 0  1.153316824384777 0.1289850171317837 0  2.148922302309752 0.1258841779285271 0  0.309375 0.04312325590431198 0  1.621993280276081 0.2841214267927899 0  1.550118654119087 0.2461998729100966 0  1.327182649291491 0.1216967252533594 0  1.051977450479407 0.1221382572915816 0  1.753125 0.04556020050186112 0  1.271875 0.04556020050186116 0  0.9816084133102366 0.05126138213476004 0  1.039051841454368 0.0572224914831029 0  0.9719230514536006 0.3480477870845102 0  1.94956388244759 0.1180512551534177 0  1.949997712993411 0.04965831614304109 0  1.771961817615021 0.1530278789497521 0  1.909246823951428 0.2812757146784527 0  0.2459536687882397 0.04668633953831142 0  1.948575539857022 0.2445328248721197 0  1.697271520964565 0.1233917627620729 0  0.7964897648514618 0.1211426571931604 0  1.065625 0.3689344961371042 0  1.085849084308977 0.3170853572226867 0  0.4702981435440001 0.260434880697798 0  1.577403511714593 0.05463601888079143 0  0.05622663515370135 0.05493816910862376 0  0.3267207591099919 0.3566194660323104 0  0.9003051618565143 0.3564049499960621 0  1.751571320346033 0.3651102912045228 0  0.1583785085108421 0.2994699345738728 0  0.1455283439499995 0.3542795598723423 0  2.2 0.35875 0  0.2347662494194072 0.298325008655211 0  0.1527284455616188 0.1065771775690181 0  0.1382139529076665 0.05427454456341477 0  0.8749341636311069 0.05110114999892954 0  0.643661668713109 0.05693499781019222 0  1.466879772203159 0.3611261772912453 0  1.990280163552011 0.3564754268533217 0  1.17471064520912 0.2990917256188288 0  0.5202693090594349 0.206382495511728 0  0 0.25625 0  2.2 0.25625 0  2.2 0.05125 0  0 0.15375 0  1.853978576207987 0.35875 0  0.9787513713939683 0.1487523696999336 0  0.240625 0.3722153812029779 0  1.515638456102889 0.2882700110184686 0  0.09048297387599738 0.3637717362208066 0  2.150453692751374 0.2387066338105111 0  1.323782677156475 0.04897634338873398 0  0.8074131292871642 0.3624701995505916 0  1.409375 0.03715320121951221 0  1.406484531114799 0.1087852750766809 0  1.134375 0.03715320121951218 0  1.627401732573545 0.04552157221025036 0  0.1170173172005315 0.1427610859166811 0  2.045405893604797 0.1105340662939892 0  1.255408269734577 0.1577307500159216 0  2.028125 0.03707597992059326 0  0.4743610090857199 0.1421513964721819 0  0.9354010469015898 0.250631300585664 0  0.04420832937638274 0.128125 0  0.8922386349349938 0.0992956419364831 0  0.1197849154434487 0.2663398672460083 0  1.248258025468107 0.2565907092181813 0  0.3746885856929528 0.370723531618974 0  1.203125 0.0366132337404304 0  0.5724622277005015 0.2751253816079333 0  0.3365425205162783 0.08395777655057959 0  2.072662025974815 0.2975086504196739 0  0.4581080832182547 0.3648371739579888 0  0.3874522734668214 0.2295447548840689 0  0.7827853612484443 0.04106550386289586 0  1.887722846421017 0.1760882698830035 0  1.472640588990488 0.1118278026240017 0  1.865937103925594 0.2604137786483804 0  1.463913572748262 0.2030442564990043 0  1.376426316059077 0.3186741374914345 0  0.6641993820150034 0.3141688596240831 0  0.2943117490824315 0.2130987422685822 0  0.3478153998082709 0.1666571081082676 0  0.3427990510599805 0.2575950027870776 0  0.7997118993855807 0.2216171933356366 0  
[...]
<PointData  Scalars="f_37"> 
<DataArray  type="Float64"  Name="f_37"  format="ascii">5.6361977178131939e-01  5.9493070846478557e-01  -3.4732154574172267e-10  -5.4308598725793903e-10  -3.7983649460198632e-01  -2.3077710405675109e-01  -4.8328233343011767e-01  -7.5509813478540599e-01  -6.8352652649511902e-01  4.7566380631935362e-01  2.1237079202486853e+00  4.9754608480112306e-01  -1.0727534770664218e+00  -6.0072603232179755e-01  2.4628374649345311e-01  2.4548155081857570e-01  8.9983350766551573e-01  3.5692444468836304e-01  3.5568912101651451e-01  2.8523263642358632e-01  3.1260837303121325e-01  1.2292203938168693e-01  1.2358954980621245e-01  3.0592009056648750e-01  3.0625777766590651e-01  1.8350915821387118e-01  1.8408366212192914e-01  6.0294589475050009e-02  6.0540594404509721e-02  1.5343675781404859e-01  9.1976134721363012e-02  3.3857530508862105e-01  2.7616305348482467e-01  2.1475589649241966e-01  -1.4727849210991360e-10  4.2599421909559287e-01  4.5940049230310101e-02  2.9114178524614006e-02  3.1505214341586311e-02  -1.6921732893901747e-10  3.0574082058531482e-01  3.1589465147418228e-01  9.2744095383661629e-02  1.8408692540776692e-01  1.5326371617403400e-01  9.2497509582945558e-02  1.5452680889332254e-01  3.0681192980605537e-01  2.7698343787757379e-01  2.7617464126488439e-01  3.3557270996450267e-01  3.3534436555098551e-01  4.9742682906749663e-01  4.7765195114759390e-01  2.1488510682218037e-01  2.4543060126657415e-01  2.1530465339385582e-01  1.2274594833853580e-01  2.3941085288482458e-01  1.1678521907775673e-01  3.0092792139576668e-01  1.9000717479043447e-01  2.4702394448600123e-01  6.8036158813312389e-02  2.3842315012691719e-02  7.6614837497756633e-02  3.5217294063396232e-01  3.5259177443398776e-01  3.0940453592541356e-01  6.5907967674191814e-01  6.9365470878401470e-01  2.2438690729185473e-02  3.7427187851145843e-01  3.6877127069821947e-01  3.7190213415869927e-01  3.2860287769233626e-01  4.6016371802603560e-02  1.6517877386689922e-01  1.4079102821569944e-01  3.2214878419412585e-01  2.6066259429999245e-01  2.8474681169013666e-01  5.3680667595307464e-02  1.0052319646542565e-01  2.0622650893669253e-01  -6.8911488479723989e-10  2.1735944379420394e-01  1.4488175098215242e-01  2.6761288316284609e-01  1.6870565015418792e-01  2.3010214593099676e-01  6.7043768092589578e-02  5.9830322578877160e-01  9.6608539023492548e-02  2.6971034001090477e-01  3.1910684474784490e-01  2.5753444854545782e-01  2.6825136764705482e-01  1.7382495196419809e-01  7.3311657647796541e-02  6.3476710904934619e-01  1.5153352678918607e-02  1.8033273062125692e-02  1.9891656602822341e-01  2.9144202149880227e-01  1.3437431709720968e-01  3.8601384393914856e-01  8.2637249785248112e-02  1.0614539146829821e-01  2.2899609428238363e-01  3.6002581321774696e-02  2.6129864274736753e-01  4.1403512132510817e-01  2.2262027832213352e-01  2.8350329893643000e-01  1.0302675750081698e+00  3.8388779340077145e-01  8.5617200302895524e-01  3.8570280582988881e-01  1.6675329671468775e-01  1.8529787095926792e-01  1.9950742616034106e-01  3.0081537717053386e-01  2.9411171711041828e-01  1.0685287682005014e-01  2.3264713182383992e-01  2.4679051682759315e-01  2.5988053721955529e-01  1.9988498631844229e-01  1.1702278277311547e-01  1.8421844894877085e-01  2.2094110641113435e-01  2.6213003440260690e-01  3.2302207034020214e-01  1.3833904973992447e-01  3.2226692079210562e-01  3.3669428960908010e-01  3.4253681428541605e-01  2.7134145667982840e-01  5.4470695744826292e-01  5.7599121278547272e-01  2.8369933743466441e-01  3.6424618891631799e-01  3.6506675597053306e-01  1.3769729172444220e-01  1.2686507098423708e-01  8.3433509205614043e-02  7.6123221068930796e-02  1.6858819205422504e-01  1.6841514883189834e-01  7.6123139382401214e-02  1.6115641197027353e-02  3.2244234705699892e-01  2.9093133937671062e-01  3.4956147250275266e-01  2.8790351662017155e-01  3.4991008988008254e-01  3.9136408676175460e-01  5.7519705862789328e-01  2.2923865390972376e-01  3.4927686791428653e-01  3.4809445472192324e-01  2.6076518664486420e-01  1.0766522878044767e-01  4.6241599918949987e-02  4.5158338202308322e-02  1.9142587985417897e-01  2.3762016319477747e-01  1.1152759630154926e-01  1.4323130074982694e-02  1.1858760365742453e-01  2.0173088435832781e-01  3.0734691128949443e-01  1.7656329702489396e-01  4.9261999523753902e-01  2.9680893479686493e-01  -4.8988432773262147e-01  1.5761341202799060e-02  3.0987939599601368e-02  4.1582751278905587e-02  5.7327679922859691e-02  6.7822926542610379e-02  2.8871828824042961e-02  2.0633993981756654e-01  1.3065735482442309e-01  3.1443324199940093e-01  3.3531387772206878e-01  -5.0422838292870953e-01  1.0486632374410360e-01  1.8818668062139246e-01  3.6884017777526458e-02  1.5229097808454237e-01  1.4242955518697195e-01  2.2370066064078400e-01  8.8319593867499394e-02  8.5182803458046338e-02  6.5394852775516432e-02  3.4154226303857843e-01  6.0807456622317291e-01  3.4293901555218409e-01  3.5009465300278686e-01  4.0169565125545093e-01  2.2484598131911063e-01  3.0630027314625646e-01  2.4593009543578390e-01  2.0465966239281025e-01  1.6184797626027816e-01  1.7703093559778532e-01  3.4303140530187215e-01  3.5923678802133302e-01  3.5438723379595322e-01  7.9013836245362401e-02  1.2292140813711628e-02  3.5569653599902934e-01  -1.4727849210991360e-10  3.5950242502952812e-01  1.3873719729452574e-01  3.2923963923286431e-01  5.9913242399020050e-01  3.5464070741463177e-01  3.6502245464772548e-01  1.5421223306774681e-01  2.9359915872828224e-01  1.2497517169476524e+00  1.5543950298071302e-01  2.1779078335417953e-01  2.3349978774409275e-01  1.1385038254055346e-02  2.4011158542224142e-01  1.2895174627850819e-01  1.4504575252718782e-01  1.9473993164010361e-01  2.5617122902972927e-01  9.9541672974001030e-02  2.0710340021042353e-01  2.7213606446235983e-01  2.5903826726731999e-01  2.7389394834481429e-01  5.5812131787965548e-02  5.5662885953215474e-02  9.5459273914241555e-02  6.4858953613078182e-02  2.5522268773517837e-01  5.6081388602363690e-02  1.1221840115274290e-01  3.1333264516538933e-01  2.5347574209221119e-01  2.4864586276174550e-01  4.0486997760780413e-01  1.3873182670338360e-01  6.0206351397591029e-01  2.6858947834635466e-01  2.9000689068688285e-01  9.9612191641378162e-02  3.5809657940932638e-01  4.4573750934802403e-01  -5.4308598725793903e-10  -4.6791059965763132e-02  4.1109101234383605e-01  4.8590911943424075e-01  2.9561752220994736e-01  3.4566466194772488e-01  1.6364793451536463e-01  4.7040860665410619e-02  2.2874816445696092e-01  3.9186858495241322e-01  8.0762224612068689e-01  -4.8141555917912276e-10  -6.9938869502076480e-10  8.3324317251202595e-01  7.7312469195362221e-02  2.7253629465386486e-01  3.1431549082176979e-01  1.5274578310023179e-01  5.3672459210444268e-01  1.1050713645260600e-02  1.9543949084011028e-01  3.0999445411441579e-01  1.7629983145783742e-01  1.7708623925290393e-01  2.3816277001491476e-01  1.2787732639761096e-01  8.9498283338716234e-01  3.4353754879334529e-02  2.1076238102676503e-01  3.8227425517082164e-02  4.0267423629324767e-01  2.8217898490986393e-01  7.7785160002876352e-01  2.9181327945079527e-01  7.9552566674294911e-01  2.1234430227900716e-01  3.0047061529416863e-01  2.2203727446321228e-01  3.6588840660746424e-01  2.1357443116713187e-01  2.8309645153677294e-02  3.4898151546705625e-01  4.7597901025066042e-01  3.1605951688339540e-01  6.9607284547823445e-02  1.6234738464271950e-01  7.4482073650629518e-02  1.6427025181744351e-01  1.8371731129245120e-01  3.4209872456922513e-01  -4.2944022991204389e-01  2.8461276514371076e-01  1.4584966260883306e-01  3.1257231563816013e-01  1.0654775528260292e-01  9.4976726442461037e-02  2.0998815872228800e-02  3.3052050721691978e-01  3.2620352973364769e-01  2.6751578926723213e-01  2.6127796767707751e-01  2.4771918415587268e-01  1.7955448824778830e-01  -5.2231700581367191e-01  3.8341750476177938e-02  1.3321030722163127e-01  3.5016606606901307e-01  3.3282088102394553e-01  8.6510080920412055e-02  9.7379622702966184e-01  4.6708758657604002e-02  8.5044654663503760e-03  2.3444705507445551e-02  2.7298266097186000e-02  5.5171333130581524e-01  3.2651840122029985e-01  1.2963165329446535e-01  9.0610431062223606e-02  4.3215345966417344e-02  4.4523371970492920e-01  1.8234156638974519e-01  2.2368677846083398e-01  1.6098814127322877e-01  1.2691359598110058e-01  1.4517700293333599e-01  2.9937129428867038e-01  1.1466811690638133e-01  1.1004878685104617e-01  2.6754242504139591e-01  2.6475975951864072e-01  8.7338414676225665e-03  9.6865951262093564e-03  5.6059403304754751e-01  3.4218386167698506e-01  3.2015823555673034e-01  2.8512682059294431e-01  2.9390041454202837e-01  1.2609799263608454e-01  8.9893805142784458e-02  7.4085363724945508e-02  1.4434881622624490e-01  5.6704731897264521e-02  4.6776619637118999e-01  -2.5732174864090601e-01  8.4408035726368943e-02  2.5089335803151097e-01  1.0335765748573662e-01  1.2037984348556813e-01  2.7634728718370427e-01  3.5229344078833502e-01  4.3528818061147845e-01  3.1885236332587226e-02  2.8340213133072600e-01  1.4430381365072201e-01  2.1599825009010903e-01  2.3549595396757106e-02  1.6343208113447999e-01  3.7609898785393936e-01  2.5260491675233249e-01  4.3923876894895147e-01  1.3618793627354520e-01  3.1589962340584232e-01  3.4877525127566866e-01  3.7817993930917515e-01  3.2523276976431859e-01  2.3843240861896914e-01  2.9997434831178149e-01  2.3893882740026948e-01  2.3707179246352811e-01  1.3987350816674164e+00  8.7522193321795203e-03  1.9604266932761535e-01  4.7322810918126443e-02  3.0041794115717818e-01  6.8035938036117238e-02  7.6264436508855948e-02  6.8780446141754631e-02  6.0532306128193242e-02  1.5385070215126281e-01  1.0872224677273562e-01  1.1943780629790686e-01  1.2206109818163952e-01  5.9182908661963751e-01  2.9302796891938476e-01  5.3875741732357270e-02  5.6487053957378053e-01  3.6110544155264275e-02  1.7533603716141505e-01  3.3987588091190440e-01  2.6930089265665080e-01  6.9300631687531311e-01  3.5820285796417073e-01  1.2796332763919310e-01  9.3957513294404604e-02  3.3141179477428245e-01  2.8184320296904253e-01  3.3610369078928798e-01  1.5857270650599892e-01  8.9705262450843093e-01  2.3173677807393145e-01  3.0043124796820808e-01  3.7306070818853530e-02  1.6876391522820333e-01  2.8790722386737116e-01  3.9100621664922836e-01  1.5341756425795317e-01  2.9038470338523370e-01  3.5996134438897825e-01  4.0511864582180634e-01  3.8213977545347511e-01  3.7561577480704322e-01  6.6959713724894607e-02  3.8399307540811400e-01  3.7798063468537885e-01  2.9776201196295132e-01  7.3388130667567497e-01  1.4944480519522413e-01  1.0096023878485555e-01  2.0577760932610187e-01  1.0429202686506324e-01  2.0248866992180817e-01  1.8538562474133255e-01  1.8700550279000819e-01  2.4794993613106844e-01  1.1473148124600924e-01  1.9217096956164553e-01  5.0377082834764879e-02  8.3979866398224412e-01  2.8897653604948131e-01  2.2470094951678143e-01  2.1325360189733222e-01  6.6897738358751924e-01  1.9984191006387289e-01  1.3335827916703402e-01  1.1888281247829920e-01  3.7430298010355245e-01  -8.4754597841905935e-02  -3.5591278732897702e-01  6.3819455054908802e-01  4.0273064306892592e-01  1.2762667192345448e-01  1.3489535795907062e-01  1.4951706296463638e-01  3.4523162727673851e-01  8.5157263615495776e-02  3.2407681482846834e-01  3.0472139402482470e-02  3.8493970182213962e-02  1.9831296759533296e-01  -5.6854066515762591e-01  2.0328219138502378e-02  1.8500681680986054e-02  8.1997806967839260e-03  9.5304668437618728e-02  1.4643145466498031e-01  2.6115956336080098e-01  2.6499715590311224e-01  2.6978809419071353e-01  3.3925484045950699e-01  1.7663379799907561e-01  2.4602624427017317e-01  2.7885484055369664e-01  2.8854529369727228e-01  2.9979368634202747e-01  3.0340706987628235e-01  7.8837962909955074e-03  1.7727149547597982e-02  2.6508320573785982e-01  5.4186008763241464e-02  2.0143916666120674e-02  3.2406762509416381e-01  2.2233351550176958e-01  2.8371476568956044e-01  7.6155971165711600e-02  8.8674312588050808e-02  3.6581973392181294e-01  2.6001766743475002e-01  3.2854729777307434e-01  2.8392255923581838e-01  -1.3313768514858373e-01  2.7687926204219793e-01  3.1163243764429588e-01  2.3137893126116629e-01  2.3674448690550806e-01  1.9861264094796272e-01  1.9125812634672601e-01  1.8418651057942148e-01  2.3624245756514670e-01  1.7142325486962337e-01  1.7441076695662115e-02  2.2385815527718225e-01  3.1345412081109530e-01  3.5928120219671333e-01  5.2331660875336394e-01  4.2454895664627945e-01  3.1108932308651810e-01  2.8195861582889803e-01  3.6725816010063711e-01  3.7365735268053579e-01  3.5690367646277904e-01  3.4979626358703542e-01  7.7119062074589892e-02  2.1462544065251751e-01  2.7492258600418251e-01  3.6761588331513656e-01  3.7202151133708145e-01  3.6117002277992039e-01  1.7606531299282563e-01  1.1657173511208092e-01  4.6063040503185736e-02  3.8065292249675260e-02  5.3456275591398636e-02  2.0622804145402743e-01  2.4123131076851703e-01  2.2975533595769695e-01  3.5266549167511030e-01  1.9150735525079954e-01  2.5370967029954361e-01  7.1046196855833934e-03  2.3752150106544790e-02  2.3795069736356694e-01  1.7650054333716558e-01  1.6160405930746569e-01  9.9624242234051918e-02  2.5392658000976209e-01  9.8410759992875393e-02  3.2889022244262600e-01  1.7768152785210581e-01  3.2973233773618638e-01  6.8407401393133765e-03  2.8337984382363979e-01  2.9652540061223609e-01  3.3455135395506058e-01  3.3700284239221445e-01  5.4250496360599376e-01  3.4900524648567510e-01  3.2693707944948192e-01  5.1376004089226968e-01  3.4436340769339857e-01  3.1392725526380100e-01  2.6505628516698171e-01  3.5565286872124252e-01  3.5759188341031933e-01  3.5357426174432388e-01  3.5539821445454761e-01  3.4307755842936632e-01  2.6787666294900625e-01  2.2233194640625317e-01  1.2957395235673383e-01  5.5345590113002316e-02  2.0729827324786979e-01  3.7901388673465701e-02  5.4809667112385572e-02  1.0725389585377591e-01  4.2184657013524932e-02  3.1472643277314916e-01  1.6983894492920928e-01  2.2959060221852282e-01  3.2991944015802815e-01  1.9318363418954237e-01  1.9807720247038185e-01  2.3007938992289165e-01  1.4769877485869767e-01  1.5758385817268825e-01  6.4995050825048473e-02  3.9688476232356085e-01  1.6935754857334856e-01  1.7271843448989727e-01  1.1124394577713201e-01  6.8598023376520476e-02  1.1003108499894830e-01  7.6520403831225298e-02  3.4342733231084582e-01  8.2718815542868057e-02  1.1864457482808172e-01  1.9776443470356095e-01  6.1115303228643753e-02  1.5753016762817704e-01  3.0669507106237631e-01  2.5279450972063577e-01  2.7149317578867105e-01  8.6975480936648442e-01  -3.5096243605719370e-02  1.3362813765325685e-01  3.4781344806737075e-01  3.0562317195952496e-02  2.4958104733308329e-02  2.6017107853555116e-01  3.3687614396014920e-01  1.8660830222851621e-01  9.3183754020626242e-01  2.1304307257127050e-01  6.1432677239678449e-02  6.3712177491354646e-02  4.8799041345516814e-01  2.5219974306804539e-02  3.7505960607592365e-01  3.4728394744621666e-01  3.3374012966692129e-01  2.8899447953928042e-01  3.5677215022311054e-02  8.8192687565102734e-02  2.5375480788250471e-01  8.1653018458776636e-02  1.1210720911331239e-01  7.9672957990300108e-02  5.3279279795021166e-02  7.0745258011692437e-03  3.7651271902573097e-01  2.7786521843673045e-01  1.4062932258825767e-01  3.0645766775003314e-01  2.8116613363686016e-01  1.3793442309799042e-01  1.2442830574115463e-01  5.2391819666743289e-01  6.4604686747758280e-02  -2.6531397893497716e-01  1.4181210125833540e-01  -5.1207379602007874e-01  -2.6346458054892574e-01  4.5118614743177110e-01  3.5536155161222155e-01  1.3441469149441693e-01  2.4071708153677818e-01  1.4882193577215908e-01  2.0389946370718187e-01  1.9126356084354232e-01  2.7667379503130241e-01  3.3326264623495488e-01  3.5889595839181609e-01  7.2637996983476394e-02  3.3546305449759822e-01  5.7931678005661014e-02  2.1676832072862517e-01  2.9076639201374321e-01  1.4177002704011890e-01  8.6712460934846289e-02  2.5375881351453089e-01  2.2368517885414901e-01  1.2351292289829257e+00  1.0097074701666858e-01  3.4955490672444600e-01  2.0986911238709022e-01  2.1840172002570207e-01  2.2945156181726370e-01  1.1988075592200155e-01  1.6208612606995568e-01  9.0623984753230941e-02  8.1098607384870652e-02  2.3738309857235729e-02  1.5750639172914244e-01  5.0981713378805076e-02  5.9553140962366058e-01  5.9455051892903577e-01  1.4722687519921004e-01  6.7084192784708313e-02  2.0250304939100425e-01  7.3505431261771270e-01  3.6167810163762737e-01  1.4534818457838175e-01  3.3982685448009919e-01  3.4392942949752847e-01  3.8846883058216958e-01  4.8967034860099311e-02  4.2993745229281932e-01  1.9070686651042812e-01  2.0591707071725820e-01  2.1055120931810703e-01  8.1241178857199114e-02  2.8806199035764246e-01  8.8387897787478287e-01  3.1616582882989186e-02  2.7508435318942026e-01  2.2045197307574774e-02  3.2141665943400799e-01  8.3047087370080541e-02  2.1772752831680020e-01  1.2733891590798974e-01  7.1631866069176514e-02  -4.8141555917912276e-10  2.4608317128789234e-01  3.5854032625205517e-01  2.4591807216016934e-01  2.3942654692803961e-01  3.0102985185875708e-01  1.2310550625062502e-01  3.4470289653003483e-01  7.8245784095661054e-03  2.6341102533317368e-01  3.0216951726561546e-02  2.6595926117048130e-01  5.1844216518030584e-01  5.0234704100414040e-01  6.7810632038206697e-02  2.9048509731761268e-01  1.8021685833357759e-01  1.6708914528742588e-01  1.6234151370420988e-01  1.5758163100491829e-01  1.6961796830329529e-01  7.3431639411201177e-02  3.1049790130859217e-01  3.2898720478322235e-01  2.6745460128777954e-01  3.1809747907865532e-01  3.0107323316932849e-01  1.8344190931905544e-01  1.7425338800036788e-01  3.1759118350589433e-01  2.4442147030634556e-01  7.2299317509998101e-02  2.8217344853809950e-01  3.4808092212928754e-01  3.5731259060367226e-01  3.3045310137829509e-01  -1.0779505003097598e-09  3.2537494635954589e-01  2.1165735704117752e-01  2.0561179588268089e-01  3.0384494701718556e-01  2.0493876645106859e-01  3.2556983723727528e-01  1.0490001887282598e-01  3.0035898849501935e-01  2.4219056817815671e-01  3.5140154650683203e-01  4.6468615414597508e-01  4.3399356324213864e-02  2.5849354443319661e-01  3.0647985512363557e-01  3.6214945125194303e-01  1.6055831696737632e-01  1.2509988059410476e-01  3.6229311075751358e-01  3.1955654569413794e-01  3.2063407599642169e-01  3.6228016035608951e-01  -2.5051294436753141e-01  9.5373624046828670e-02  1.4160104737208397e-02  1.5552389953494689e-02  6.4992110486211041e-03  3.5811885173539398e-01  7.3094281855846252e-02  4.7487343610958216e-02  2.5657775635391677e-01  2.0150617682229782e-01  1.0349679299580827e-01  9.4672558745271695e-02  1.3557851917221969e-01  3.3189694687116567e-01  2.2718524688073083e-01  2.3109972617935959e-01  1.8051622500430151e-01  1.9241999395210321e-01  2.1946550953259172e-01  2.5517574080857830e-01  2.5286988605340227e-01  3.0998475889266947e-01  3.5356096401106107e-01  3.6060729853844836e-01  2.0391434821330282e-01  5.9073458218921693e-01  2.7116218895003152e-01  5.7895826381744453e-01  4.4700150886020606e-01  2.7919092156334602e-01  2.3951899509546581e-01  2.8411681797268745e-01  3.2454295502480079e-01  -1.4727849210991360e-10  1.1985457294475559e+00  1.0081186198827137e+00  1.3921745065729854e-01  1.3212214612617917e-01  -2.1719508720373433e-02  6.2397975128619027e-02  6.5947357015507579e-01  4.5489464263470414e-01  6.0623956076038932e-01  6.0914587994488478e-01  6.5155534626515865e-01  5.3765054588038175e-01  5.7760933027362675e-02  2.4571998833214804e-02  3.6224553845189944e-01  1.4978151490142660e-01  1.4185844708064976e-01  1.3946180685164225e-01  1.9007258980417455e-01  2.2372315385958016e-01  1.2989344458537336e-01  8.5565447175096093e-02  3.5674582256445558e-01  9.3471408722869465e-02  6.1733056834910122e-02  5.8965545204105324e-02  3.2654098424423289e-01  4.3916788370123266e-01  1.0527447901505842e-01  3.1281805342529789e-01  9.8310653114416863e-02  2.2589213077856168e-01  1.7171528462343641e-01  2.8752822938012285e-01  3.5793346963879918e-01  7.1935495871784397e-02  2.5832347669611755e-01  2.0915771341394443e-01  3.7943093231575520e-01  4.0223470336051415e-01  1.136733