<?xml version="1.0"?>
<VTKFile type="UnstructuredGrid"  version="0.1"  >
<UnstructuredGrid>
<Piece  NumberOfPoints="2446" NumberOfCells="4585">
<Points>
<DataArray  type="Float64"  NumberOfComponents="3"  format="ascii">0 0.41 0  0 0 0  2.2 0 0  2.2 0.41 0  0.2404508497187474 0.2293892626146237 0  0.25 0.2 0  0.2404508497187474 0.1706107373853764 0  0.2154508497187474 0.1524471741852423 0  0.1845491502812526 0.1524471741852423 0  0.1595491502812526 0.1706107373853764 0  0.15 0.2 0  0.1595491502812526 0.2293892626146237 0  0.1845491502812527 0.2475528258147577 0  0.2154508497187474 0.2475528258147577 0  1.1 0 0  1.1 0.41 0  0 0.205 0  0.55 0 0  0.55 0.41 0  0.275 0 0  0.275 0.41 0  1.65 0.41 0  1.65 0 0  0.8250000000000001 0.41 0  0.8250000000000001 0 0  1.375 0 0  1.375 0.41 0  1.925 0 0  1.925 0.41 0  1.5125 0.205 0  1.7875 0.205 0  0.6875 0.205 0  0.9625000000000001 0.205 0  1.2375 0.205 0  2.2 0.205 0  0.4687002074688797 0.2068568464730291 0  1.99375 0.2152743902439024 0  2.0625 0 0  2.0625 0.41 0  2.2 0.3075 0  0.4125 0 0  0.4125 0.41 0  1.7875 0.41 0  1.375 0.1486128048780488 0  1.5125 0 0  1.7875 0 0  1.5125 0.41 0  0.8250000000000001 0.2613871951219511 0  0.9625000000000001 0.41 0  0.9625000000000001 0 0  0.6875 0.41 0  0.6875 0 0  0.1375 0 0  0.1375 0.41 0  1.2375 0 0  1.1 0.1486128048780487 0  1.2375 0.41 0  1.65 0.1486128048780487 0  1.126715909090909 0.2793064024390244 0  1.676715909090909 0.2793064024390244 0  0.8517159090909092 0.1306935975609756 0  1.348284090909091 0.2793064024390244 0  0.34375 0.3032389320646208 0  1.894702181800738 0.1282910975492754 0  2.092797818199262 0.1282910975492754 0  1.85625 0.3075 0  0.61875 0.3075 0  0.61875 0.1025 0  0.3648540804333487 0.1240075933101478 0  0 0.3075 0  0 0.1025 0  2.099172119769978 0.25625 0  0.48125 0.09238439620688085 0  0.5781001037344399 0.2059284232365146 0  0.48125 0.3196743479159776 0  0.7265881057911006 0.3055240343720796 0  1.99375 0.08395950269330846 0  1.459960956013612 0.3075 0  1.569025960719943 0.2986889805672169 0  0.75625 0.08213100772579164 0  1.03125 0.3278689922742084 0  0.923871252904788 0.3078247185783941 0  1.959375 0.3126371951219512 0  1.749222215368287 0.1025 0  1.275777784631713 0.1025 0  2.2 0.1025 0  1.225938124459196 0.3075 0  1.550777784631713 0.1025 0  1.000777784631713 0.1025 0  1.44375 0.07430640243902442 0  1.16875 0.07430640243902437 0  1.899250267340833 0.2229966846119207 0  0.1020898364287272 0.3140258291809757 0  1.766482954545455 0.2934032012195123 0  0.3405058858996321 0.2119987970531874 0  0.7710785630958338 0.1710968191298857 0  1.046078563095834 0.2389031808701144 0  0.2 0.3400647632937836 0  1.421109702350723 0.2261157654379721 0  0.2800464974185557 0.08982544815605742 0  0.098916018031319 0.09171660955420841 0  2.13125 0 0  2.118919042110979 0.3422084711244843 0  1.30625 0.41 0  0.89375 0 0  1.597888256393107 0.2173787389261347 0  0.20625 0 0  1.829299675393195 0.07400700849299596 0  1.71875 0.41 0  1.16875 0.41 0  2.038220665644273 0.332420740103091 0  0.34375 0 0  0.417496017710808 0.2696595573092803 0  0.2 0.07687845740457822 0  0.9295982307099278 0.1343158415898188 0  0.07390688010811153 0.1697064032433452 0  0.5238366813727013 0.2578302467013575 0  0.05452951551825875 0.25625 0  0.5229630068078351 0.1548816096928243 0  1.452769549894695 0.1548122580621249 0  1.369219062229598 0.07430640243902442 0  1.30625 0 0  0.8504409521244898 0.3356935975609756 0  0.8821881244591965 0.205 0  1.720943423819132 0.1714577452753128 0  1.157188124459196 0.205 0  1.094219062229598 0.07430640243902437 0  1.03125 0 0  1.304056576180868 0.1714577452753128 0  1.67579304192913 0.07430640243902437 0  0.2751941921308361 0.3346083473122598 0  1.209670467133757 0.1362100266964769 0  1.025335513626278 0.1700681449722324 0  0.7562500000000001 0.41 0  1.58125 0 0  0.7567170593862014 0.2409196493502535 0  0.6926714215682891 0.1272249611432207 0  0.4139715849905988 0.3397932387114203 0  0.9840787304190477 0.2717749043358119 0  0.06875000000000001 0.41 0  0 0.35875 0  0.9281250000000001 0.06276726142697993 0  0.5507396469029935 0.3219409231578227 0  0.5504468037989405 0.09136885600634273 0  1.58125 0.41 0  1.631724228912893 0.3381867502687533 0  1.825608881788174 0.14499488549201 0  1.85625 0 0  1.44375 0 0  1.44375 0.41 0  1.85625 0.41 0  2.13125 0.41 0  0.7562500000000001 0 0  0.89375 0.41 0  0.4812500000000001 0 0  0.34375 0.41 0  0.4812500000000001 0.41 0  0.20625 0.41 0  0.06875000000000001 0 0  1.16875 0 0  0.61875 0 0  0.61875 0.41 0  1.03125 0.41 0  1.71875 0 0  1.99375 0 0  1.99375 0.41 0  1.340625 0.3489494290853124 0  1.134375 0.3489494290853123 0  1.700180620188976 0.3438659752031281 0  2.135782184673599 0.07126652247502523 0  1.668441847249787 0.2129203728327609 0  1.295782514339747 0.2378437748815763 0  0.8233075729931248 0.06842334294821524 0  1.409375 0.3520314716057996 0  0.403505597322782 0.182067236678212 0  0.378125 0.05794951541303489 0  0.3043468223249023 0.1518321115979534 0  2.129248544730567 0.1906135162504124 0  2.060771381434487 0.1989445750470348 0  2.013252586573865 0.1496169464686054 0  1.942766402200229 0.1734448904596831 0  1.895522487186454 0.06076163953489683 0  2.069553871656643 0.06605731020975725 0  1.274680914880868 0.3520219391081363 0  1.614713220494657 0.09473434380863296 0  0.7899021319497519 0.3149123934144827 0  0.69518737419149 0.0634051089053758 0  0.2971740475496061 0.2592172353407536 0  1.72990325744076 0.2380068107952482 0  1.356580098625191 0.2120393231351682 0  2.034370752044885 0.2668681600792073 0  1.51768709249349 0.3426260931494756 0  1.561883724969884 0.1650446847858835 0  1.197344062229598 0.2523725417393646 0  1.804085235518364 0.3468178408964637 0  1.817887819205233 0.2589243285818559 0  1.905897727272727 0.3485060975609756 0  0.6719798073392919 0.2688965171178177 0  0 0.05125 0  0.653125 0.35875 0  0.6396896119294488 0.1627615407790282 0  0.4274150154087412 0.1242548552168279 0  1.192836486056382 0.3562350748565544 0  0.8279124365364005 0.183856489168822 0  1.097485222388854 0.2083571153401724 0  1.28257088594801 0.2944411014911587 0  1.474860187679412 0.2504218616229368 0  1.406767003493824 0.2829282258560709 0  0.446875 0.04619219810344041 0  0.515625 0.04585361801037557 0  0.592043440706648 0.05125 0  1.845656689180403 0.1998310418452388 0  2.144958525570388 0.2909790873294231 0  0.6171090763650112 0.2492366900333857 0  2.2 0.15375 0  0.5145586920831158 0.3648371739579888 0  1.57794966442982 0.3540357145964566 0  0.721875 0.3633107922168974 0  0.0496154796471391 0.333125 0  0.5843750000000001 0.3662560860076676 0  0.5810878747760798 0.1474002776121195 0  1.508991196088596 0.1421783375065625 0  0.8840670607017558 0.2640994375393898 0  0.09776612425612034 0.2204896805326566 0  1.50436820029908 0.06143401634903343 0  1.223857000523521 0.0823554862453532 0  1.153316824384777 0.1289850171317837 0  2.148922302309752 0.1258841779285271 0  0.309375 0.04312325590431198 0  1.621993280276081 0.2841214267927899 0  1.550118654119087 0.2461998729100966 0  1.327182649291491 0.1216967252533594 0  1.051977450479407 0.1221382572915816 0  1.753125 0.04556020050186112 0  1.271875 0.04556020050186116 0  0.9816084133102366 0.05126138213476004 0  1.039051841454368 0.0572224914831029 0  0.9719230514536006 0.3480477870845102 0  1.94956388244759 0.1180512551534177 0  1.949997712993411 0.04965831614304109 0  1.771961817615021 0.1530278789497521 0  1.909246823951428 0.2812757146784527 0  0.2459536687882397 0.04668633953831142 0  1.948575539857022 0.2445328248721197 0  1.697271520964565 0.1233917627620729 0  0.7964897648514618 0.1211426571931604 0  1.065625 0.3689344961371042 0  1.085849084308977 0.3170853572226867 0  0.4702981435440001 0.260434880697798 0  1.577403511714593 0.05463601888079143 0  0.05622663515370135 0.05493816910862376 0  0.3267207591099919 0.3566194660323104 0  0.9003051618565143 0.3564049499960621 0  1.751571320346033 0.3651102912045228 0  0.1583785085108421 0.2994699345738728 0  0.1455283439499995 0.3542795598723423 0  2.2 0.35875 0  0.2347662494194072 0.298325008655211 0  0.1527284455616188 0.1065771775690181 0  0.1382139529076665 0.05427454456341477 0  0.8749341636311069 0.05110114999892954 0  0.643661668713109 0.05693499781019222 0  1.466879772203159 0.3611261772912453 0  1.990280163552011 0.3564754268533217 0  1.17471064520912 0.2990917256188288 0  0.5202693090594349 0.206382495511728 0  0 0.25625 0  2.2 0.25625 0  2.2 0.05125 0  0 0.15375 0  1.853978576207987 0.35875 0  0.9787513713939683 0.1487523696999336 0  0.240625 0.3722153812029779 0  1.515638456102889 0.2882700110184686 0  0.09048297387599738 0.3637717362208066 0  2.150453692751374 0.2387066338105111 0  1.323782677156475 0.04897634338873398 0  0.8074131292871642 0.3624701995505916 0  1.409375 0.03715320121951221 0  1.406484531114799 0.1087852750766809 0  1.134375 0.03715320121951218 0  1.627401732573545 0.04552157221025036 0  0.1170173172005315 0.1427610859166811 0  2.045405893604797 0.1105340662939892 0  1.255408269734577 0.1577307500159216 0  2.028125 0.03707597992059326 0  0.4743610090857199 0.1421513964721819 0  0.9354010469015898 0.250631300585664 0  0.04420832937638274 0.128125 0  0.8922386349349938 0.0992956419364831 0  0.1197849154434487 0.2663398672460083 0  1.248258025468107 0.2565907092181813 0  0.3746885856929528 0.370723531618974 0  1.203125 0.0366132337404304 0  0.5724622277005015 0.2751253816079333 0  0.3365425205162783 0.08395777655057959 0  2.072662025974815 0.2975086504196739 0  0.4581080832182547 0.3648371739579888 0  0.3874522734668214 0.2295447548840689 0  0.7827853612484443 0.04106550386289586 0  1.887722846421017 0.1760882698830035 0  1.472640588990488 0.1118278026240017 0  1.865937103925594 0.2604137786483804 0  1.463913572748262 0.2030442564990043 0  1.376426316059077 0.3186741374914345 0  0.6641993820150034 0.3141688596240831 0  0.2943117490824315 0.2130987422685822 0  0.3478153998082709 0.1666571081082676 0  0.3427990510599805 0.2575950027870776 0  0.7997118993855807 0.2216171933356366 0  
[...]
<PointData  Scalars="f_37"> 
<DataArray  type="Float64"  Name="f_37"  format="ascii">6.6479181235081364e-01  6.8098082231126145e-01  -5.4944200762423200e-10  -6.5060016831142404e-10  -1.1774148665805521e-01  1.3735491248243673e-01  -9.0408712775592370e-02  -7.3603037901258306e-01  -6.3269050943304828e-01  4.6995283297236390e-01  2.1812190754720437e+00  5.6606327469364315e-01  -8.9366931749990586e-01  -5.1410911168241391e-01  3.2053496150921523e-01  3.1879054518682021e-01  9.5821972389004950e-01  4.7537366927714642e-01  4.7330523385722428e-01  4.7228704947413541e-01  4.9855380219067058e-01  1.5785065422370803e-01  1.6136963230870760e-01  3.9882658340643068e-01  3.9731492205073626e-01  2.3996154547346449e-01  2.4043460263815974e-01  7.8839150794661278e-02  8.1242548561342096e-02  2.0018832582845603e-01  1.2027951093300093e-01  4.4041235332253675e-01  3.6001865884201889e-01  2.7996459365752879e-01  4.0558588861922146e-11  5.1796824466246394e-01  6.0248020904396106e-02  3.8617317246785916e-02  4.4673638890254656e-02  -1.6540035091762741e-10  4.8626684834529088e-01  4.9176086951212206e-01  1.2214241936436082e-01  2.4003406139417013e-01  1.9783594414404068e-01  1.2051229791669885e-01  1.9899474499652173e-01  3.9996251842316771e-01  3.6137082669062415e-01  3.6090289976561185e-01  4.3972752924525782e-01  4.3725352110275223e-01  7.5863125372543017e-01  7.5742401301289064e-01  2.8032862906692507e-01  3.1999441193761008e-01  2.7997515490875574e-01  1.6027239301384527e-01  3.1215153165159171e-01  1.5250873412037041e-01  3.9220097501876927e-01  2.4782697040266724e-01  4.9823599395059948e-01  8.9115801548196344e-02  3.1448064249550274e-02  1.0017657259400836e-01  4.5997476127126707e-01  4.5982895002533986e-01  5.2923701313238003e-01  7.3989966385794326e-01  7.5955802031582609e-01  2.9612875999717746e-02  4.9755833993769755e-01  4.7447533545558385e-01  4.9796496322791300e-01  4.2855273000369082e-01  6.0294826906630426e-02  2.1553838348437948e-01  1.8379716930368167e-01  4.1997352943049981e-01  3.3989051147840926e-01  3.7117879900948281e-01  7.0235235485464551e-02  1.3145296619656080e-01  2.6871006119351432e-01  -7.3422267787342320e-10  2.8323744363939241e-01  1.8906426741360627e-01  3.4890802083144046e-01  2.2005336270364689e-01  3.0004709360538689e-01  8.7763642584628820e-02  6.5310691709635293e-01  1.2638319573259515e-01  6.2544176204555701e-01  4.1573757290723068e-01  3.3572957712213708e-01  5.1970470746494846e-01  2.2672645412749654e-01  3.7654771746459503e-01  6.6937996431211932e-01  2.0508382397016210e-02  2.4319681474918829e-02  2.6060690249646101e-01  3.7956135974972216e-01  1.7541113167240072e-01  5.9256269200333855e-01  1.0827165038522099e-01  1.3916387025540278e-01  2.9946900714480867e-01  4.7383301341066650e-02  4.6672267192243561e-01  5.3081722785838670e-01  4.4716914148727266e-01  3.6959000395738884e-01  1.0783705138881348e+00  4.9180694256844959e-01  9.1908701466960574e-01  4.9214933878714257e-01  2.1747719304794766e-01  2.4177913582251917e-01  2.5922639063123926e-01  3.9251193552792535e-01  3.8337265734082276e-01  1.3962812959720255e-01  3.0331410611192239e-01  3.2179766440647517e-01  3.3858863223376912e-01  2.6058325102704127e-01  1.5263407966415982e-01  4.2972803569752055e-01  2.8804685216386067e-01  3.4174284593251858e-01  4.2176579533185066e-01  1.8062914259221524e-01  4.1991396528290137e-01  4.3853608847175224e-01  5.0463035164980241e-01  3.5374279127208075e-01  6.8053729262805862e-01  6.7530561525785382e-01  3.7017454905911512e-01  4.7897063453484062e-01  4.7885445938123389e-01  1.8177548322612161e-01  1.6572739232881056e-01  1.0920772294947688e-01  9.9897459523137222e-02  2.1987335677556158e-01  2.2080864569308603e-01  9.8779816712360149e-02  2.1285993464932623e-02  4.2125343503439144e-01  3.7974668698361247e-01  4.8842857052949762e-01  4.8217543171459221e-01  4.9007297102240927e-01  6.1646032342671864e-01  6.9886671366859499e-01  2.9895282692899261e-01  4.5828475748721087e-01  4.5854440478786185e-01  3.4185985670844143e-01  1.4136697467282694e-01  6.0279593765622072e-02  5.6649872030802031e-02  2.4994067041924142e-01  3.1011948607557938e-01  1.4556927950591353e-01  1.9009748754218642e-02  1.5488341786422938e-01  2.6301972955499919e-01  4.0053339366146323e-01  2.3055926663546630e-01  5.5883802354709289e-01  4.9296656458464377e-01  3.8143083327241956e-01  2.0772091671125373e-02  4.0743425835308641e-02  5.4585353956942625e-02  7.5109950261468258e-02  8.8883418512222867e-02  3.8310829965640697e-02  2.6887713898999610e-01  1.7059159606013480e-01  4.1004505631214655e-01  4.3734917136571805e-01  3.1426102986127258e-01  1.3704390067983085e-01  2.4540031521533168e-01  4.8461073427581380e-02  1.9849840040498376e-01  1.8586274769738820e-01  2.9162013724724689e-01  1.1549952043758857e-01  1.1141779656572794e-01  8.5771077028880746e-02  4.4480829707091685e-01  6.9118472053733382e-01  4.4923013957106278e-01  4.5462361191897693e-01  5.2217114787747776e-01  2.9279743960977989e-01  3.9917926427031003e-01  3.2065114830407748e-01  2.6680602750564919e-01  2.1115249526097937e-01  2.3094841542816433e-01  4.9454420318205689e-01  4.8381610261667968e-01  4.6585162012809062e-01  1.0338438399120772e-01  1.6345730331026681e-02  4.6155335784628215e-01  4.0558588861922146e-11  4.8557325986156269e-01  1.8144742738747263e-01  4.2976462332420468e-01  6.7649020339775168e-01  4.6762408834075553e-01  4.7236765606545872e-01  2.0115917826916269e-01  3.8277221580769338e-01  1.3041520075422177e+00  2.0209844573971780e-01  2.8397995432280954e-01  3.0445520543142618e-01  1.5051094084760821e-02  4.5778301731065846e-01  1.6838379062208475e-01  1.8929434995453756e-01  2.5382270960969833e-01  3.3399258477134780e-01  1.3044951399584725e-01  2.6944117638433379e-01  3.5468015483417298e-01  3.3770024865381087e-01  3.5713373326733838e-01  7.3146158097317393e-02  7.3092254158449860e-02  1.2482882983552342e-01  8.4870069838457809e-02  4.5990841456896175e-01  7.3436052237652233e-02  1.4655012667729481e-01  4.0830005020290500e-01  3.3013376471215228e-01  3.2400888416841339e-01  5.1176763102316858e-01  1.8139664555853383e-01  6.5813069145196279e-01  4.8098863122454732e-01  3.7804452937741423e-01  1.3118359759945691e-01  5.0565398502636560e-01  6.9421916716127063e-01  -6.5060016831142404e-10  2.3105788268402042e-01  4.9473791734500444e-01  7.1340606592114619e-01  3.8514235240054678e-01  4.5187664002581318e-01  2.1342704147264790e-01  6.0776288558635906e-02  2.9823766611694397e-01  4.9500111107957068e-01  8.7424152585860082e-01  -4.9393652189636311e-10  -6.6561105427601098e-10  8.9047886023785172e-01  1.0076774065393508e-01  3.5530662151288850e-01  5.1566919819844681e-01  1.9930606634166870e-01  6.3350008446208239e-01  1.4596048824074517e-02  2.5455460323054752e-01  4.0428997869001709e-01  2.3077900482924987e-01  2.3095398230775679e-01  3.1057476570234466e-01  1.6702827394629965e-01  9.2805103914265286e-01  4.5209806726780460e-02  2.7474531769451399e-01  5.0031036255566361e-02  5.0885927225367800e-01  3.6786474479049136e-01  8.3239891459440873e-01  3.8040199848939016e-01  8.5563739541920592e-01  2.7680752561644406e-01  4.9217301327520874e-01  2.8998367290227223e-01  4.7484083885836781e-01  4.7678052282903660e-01  3.7426343683844669e-02  4.9583021234191965e-01  5.6772414328497545e-01  4.1198727839473842e-01  9.1134810601494115e-02  2.1167655612915340e-01  9.7444340914127181e-02  2.1428144520777612e-01  2.3975045291539107e-01  4.4667230336052077e-01  3.7565544485912800e-01  6.0063889889247513e-01  5.4732948774655954e-01  4.0735409133237543e-01  1.3925108329231875e-01  1.2419523705332233e-01  2.8671026804686056e-02  4.3035170876569723e-01  4.2501878953188771e-01  3.4874865941435013e-01  3.4062598355785217e-01  3.2298443335736954e-01  2.3415370626813639e-01  8.9372503440555170e-04  5.0118941667988193e-02  1.7390700190791525e-01  4.5440915164271423e-01  4.3342623380236517e-01  1.1314901653957077e-01  1.0298416110722477e+00  6.1215925107279724e-02  1.1483699003854366e-02  3.1788314975558923e-02  3.7251793662437971e-02  6.9513340751772223e-01  4.2610451101261609e-01  1.7013956965931781e-01  1.1860142264582578e-01  5.6622682164365716e-02  6.8674335410827192e-01  2.3782511653797911e-01  2.9162741266114517e-01  2.0968387177824113e-01  1.6568581185253567e-01  1.8799787377091481e-01  3.9232390671560646e-01  1.4843139709154032e-01  1.4355520491028531e-01  3.5063155435636645e-01  3.4578542622446629e-01  1.1326786280529055e-02  1.3549631120800581e-02  6.5622142660968907e-01  4.4619650640961622e-01  4.1734908788826336e-01  3.7168834365209336e-01  3.8308982645281764e-01  1.6465171842309270e-01  1.1782173237010012e-01  9.6994703686794553e-02  1.8853964555398067e-01  7.4637477905781874e-02  5.4202145366110244e-01  2.6957964365744182e-02  1.0965253317552796e-01  3.2757655690871346e-01  1.3522275552013341e-01  1.5647251805075671e-01  3.6036248807347987e-01  5.0591415077598867e-01  6.9798161666307201e-01  4.1937902586169057e-02  3.6798467673801283e-01  1.8830587273722132e-01  2.8069393804300813e-01  3.1014506775918844e-02  2.1207646693425511e-01  6.1383898443327856e-01  3.2934456959045860e-01  5.2841835096605105e-01  1.7778038209536981e-01  4.1179872432629427e-01  5.1873538338173319e-01  5.1104407152685571e-01  4.2360213208025721e-01  3.1088155093918485e-01  3.9102823768720091e-01  3.1151515064897495e-01  3.0909571927228180e-01  1.4434962102428563e+00  1.1537914526026354e-02  2.5567814245405079e-01  6.1950282598547103e-02  3.9173890171627029e-01  8.9259208102188570e-02  1.0013572682850518e-01  8.8802045028590806e-02  7.9300541671454131e-02  2.0057566054411805e-01  1.4198749158429991e-01  1.5560753136886785e-01  1.5934832586596195e-01  6.7002042673934625e-01  3.8207855728005113e-01  4.1073378903482261e-01  6.5537432425722519e-01  4.7704327794761490e-02  2.2865799907950515e-01  4.4213539789131434e-01  3.5113440909988902e-01  7.5841411242902734e-01  4.7528279955123387e-01  3.4377520641874870e-01  1.2303389938525616e-01  4.3198266117547718e-01  3.6666181622348093e-01  4.3919813342339842e-01  2.0685398513284875e-01  9.5106778414458382e-01  3.0212469925410135e-01  3.9149669153014877e-01  4.9047909819023579e-02  2.2018304194208016e-01  4.8174376102792255e-01  6.5886234254561149e-01  2.0018013108914942e-01  4.8086517684337293e-01  4.6567075838165350e-01  5.0505772047751529e-01  4.9476825401291813e-01  4.8174892735011676e-01  4.7222414538103263e-01  4.9787217085482643e-01  4.8398146578173512e-01  3.8915531929524561e-01  8.0540937715374517e-01  1.9529229729991804e-01  1.3196188692777419e-01  2.6827184673974347e-01  1.3629823579105041e-01  2.6392132184354838e-01  2.4170359940904876e-01  2.4371011747011276e-01  3.2327965874527292e-01  1.4985225696535559e-01  2.5054532644826011e-01  6.6056621657443207e-02  8.8396912363531199e-01  4.9640043033566839e-01  2.9300369945029897e-01  2.7798187382670164e-01  7.2128616460481088e-01  4.3885065245369892e-01  1.7422929416631999e-01  1.5512295823497882e-01  5.4457249297576737e-01  8.8349173562535521e-02  -3.2670574206552311e-02  7.0950116799534724e-01  5.0454703379970556e-01  1.6731741819167142e-01  1.7608728165424603e-01  1.9464708824937565e-01  4.4934906377711176e-01  1.1234828561132155e-01  4.2271112525463789e-01  4.0094146450263095e-02  5.0539835205356529e-02  2.5833160415630091e-01  3.5799903311362624e-02  2.6972487614950809e-02  2.4383794629663766e-02  1.0810178923439865e-02  1.2482756841740650e-01  1.9105906948594953e-01  3.4047731010931109e-01  3.4548445456290527e-01  3.5169839236813721e-01  4.4270673408832972e-01  2.3055466146872372e-01  3.2038927766828612e-01  3.6398742820911817e-01  3.7645717878248436e-01  3.9010517233830821e-01  3.9526864457967714e-01  1.0407988399724292e-02  2.3534237311964551e-02  3.4519386541891800e-01  7.0986291581475236e-02  2.6937711363173862e-02  4.2240548496658653e-01  2.8985527008521439e-01  3.6985824540094320e-01  9.9711119849298285e-02  1.1599495801044135e-01  4.7247342497681311e-01  4.7691282959075487e-01  4.9658522575664965e-01  3.7017046263428749e-01  6.1398403680680691e-01  3.6094958333816685e-01  4.0608325067847623e-01  3.0323346467027718e-01  3.1099301980842109e-01  2.5956866368642267e-01  2.5017845448651838e-01  2.4103748015991333e-01  3.0808789045566326e-01  2.2357120314190931e-01  2.2996373060710913e-02  2.8821677441023852e-01  4.0887091403020237e-01  4.7714359350225621e-01  5.9412891042096017e-01  5.4508152461253134e-01  4.9146000780495896e-01  4.8417180553070527e-01  4.8799145372817415e-01  4.8630145623804127e-01  4.6825295640616604e-01  4.5866219297386723e-01  1.0093859473200925e-01  2.7982275516584770e-01  3.5840050602414392e-01  4.8725176916672541e-01  4.8169030940311930e-01  4.7063148791698245e-01  2.2973720532455555e-01  1.5044338477790808e-01  6.0420240492840074e-02  4.9983182815371056e-02  6.9989623393591341e-02  2.6927496333386902e-01  3.1426541757379717e-01  2.9997516545140240e-01  4.9022019008002377e-01  2.4911508247288564e-01  3.2982466346442407e-01  8.7927475751582562e-03  3.2545884774383256e-02  3.1017742391157871e-01  2.3213323105099429e-01  2.1072367211193405e-01  1.3231723907470294e-01  3.2976742738059467e-01  1.2850139657054249e-01  4.2796243825814695e-01  2.3105115714923824e-01  4.2880120373968839e-01  9.6698673456224755e-03  3.6933518140984040e-01  4.8704754281272805e-01  4.8939428898922605e-01  4.9369721420309809e-01  7.5691243186098678e-01  5.4412183867943265e-01  5.1438224371410746e-01  7.4782072835680380e-01  4.4868685581307133e-01  4.0979703407785850e-01  4.6026748060607503e-01  4.6886257053664510e-01  4.8335362376901453e-01  4.6696345646499771e-01  4.8074454513323112e-01  4.5005235903586061e-01  3.4805547580106788e-01  2.9080292038190003e-01  1.6981353857928455e-01  7.1907105916508479e-02  2.6958111589911254e-01  4.9419887594026650e-02  7.1163195678111843e-02  1.4033832554529987e-01  5.5363092404722432e-02  4.1022855538807107e-01  2.2148533666020354e-01  2.9934248743868414e-01  5.1228778687101539e-01  2.5192347544985644e-01  2.5828177158087762e-01  3.0003054100784049e-01  1.9269565834495184e-01  2.0557314560692092e-01  8.5341865466405598e-02  4.6405405946735151e-01  2.2116345647106955e-01  2.2537979859453738e-01  1.4532791208437251e-01  8.9714313574876678e-02  1.4376803216701578e-01  3.3815152930391734e-01  4.4658237813000745e-01  1.0830993089218895e-01  1.5495436759311343e-01  2.5785380486113268e-01  8.0010331004715440e-02  2.0529150783393987e-01  3.9996067331313645e-01  3.2954775493317656e-01  3.5430400819870411e-01  9.3161514641579835e-01  3.1017908464894128e-01  1.7540039693460724e-01  4.5752438883471053e-01  4.0706052708729616e-02  3.3039550928887926e-02  3.3920893509239342e-01  4.4118888861888195e-01  2.4332936699614929e-01  9.9128259770271432e-01  2.7742640409225133e-01  8.0450159118616055e-02  8.3437328907618263e-02  7.4035013543318662e-01  3.3705338024912226e-02  6.0418009575677079e-01  4.5266955941696341e-01  4.3498330541357433e-01  3.7674825338200107e-01  4.6922751321030652e-02  1.1553426224091477e-01  3.3083366406788561e-01  1.0665786800048654e-01  1.4641492732468228e-01  1.0422861977282728e-01  6.9822408559678237e-02  9.3786595895684523e-03  5.0671748482511214e-01  3.6224051513520616e-01  1.8355158120569681e-01  3.9938522123608300e-01  3.6642083535033171e-01  1.8011659810432659e-01  1.6246330978955315e-01  5.3657204875259212e-01  8.4975053373741213e-02  5.2447180322607945e-01  1.8543580868103648e-01  -9.8061199373473337e-02  3.3886075261512055e-01  7.0991873550081563e-01  4.6170647258265546e-01  1.7729412481479739e-01  3.1385014274210876e-01  1.9417670534022755e-01  4.3239576448639522e-01  2.4925828314455539e-01  3.6072167235738856e-01  4.3480930994067291e-01  4.6436577561451886e-01  9.4588218375427913e-02  4.3768631902077110e-01  7.5822560806222863e-02  2.8259277143468281e-01  3.7902753976606274e-01  1.8494849497025997e-01  1.1341506189643337e-01  3.3087999416134850e-01  2.9155414395837453e-01  1.2941913180548132e+00  1.3201044010712137e-01  4.5829859141049567e-01  2.7359309763927625e-01  2.8467880401745826e-01  2.9913522844956708e-01  1.5655433874565802e-01  2.1123352555237784e-01  1.1853347431537259e-01  1.0606490884376238e-01  3.1248262809627100e-02  2.0432541636996640e-01  6.5079426718488098e-02  6.8298579280080485e-01  6.7329722015656823e-01  1.9208225195105702e-01  8.7944182149147787e-02  2.6404122256946899e-01  7.9437854947021280e-01  5.0134787964430672e-01  1.8963747794029481e-01  5.3964507630903347e-01  5.7880478326358098e-01  5.0683913297902572e-01  6.4211818306681948e-02  5.2763665787674296e-01  2.4858267813623980e-01  4.5394226211423955e-01  2.7430207177298194e-01  1.0498658221819349e-01  3.7478504596610190e-01  9.4532437863787422e-01  4.6939402797104546e-01  4.8098481614695243e-01  2.9498938631771547e-02  4.1912747170167958e-01  1.0896590452554789e-01  2.8383383517286170e-01  1.6624440774420898e-01  9.3716225730327563e-02  -4.9393652189636311e-10  3.2082409626833108e-01  4.7025436643030077e-01  3.2063186135596711e-01  3.1215866869223807e-01  3.9233433542173041e-01  1.6075295313130833e-01  4.4788824338936423e-01  1.0390075529565711e-02  3.4340423138463488e-01  3.9800783205133250e-02  3.4664381655099141e-01  6.3019354020823348e-01  5.9338665468874230e-01  8.8744617714870994e-02  3.7872240503498644e-01  2.3504040896878670e-01  2.1796499702927313e-01  2.1179442876025908e-01  2.0559641863063696e-01  2.2152727816503989e-01  9.6017044337306706e-02  4.0481281985756790e-01  4.2903559458720703e-01  3.4892954944363724e-01  4.1445683685771978e-01  3.9242010685024137e-01  2.3929144979730052e-01  2.2730613638539390e-01  4.1416330641364962e-01  3.1838622475321865e-01  9.4628556062066896e-02  3.6786395194522270e-01  4.5266324523395296e-01  4.6487070669973601e-01  4.3127763600350971e-01  -1.0194437039606085e-09  5.4932765157459140e-01  2.7587586607601572e-01  2.6805313638781808e-01  3.9653443774092900e-01  2.6695972341339935e-01  4.2437992149936882e-01  1.3708055467344199e-01  3.9158163590538081e-01  3.1580362689622193e-01  4.5986164069498869e-01  5.7806954715799164e-01  5.4787145471199859e-02  3.3673655140382358e-01  3.9947166605783418e-01  4.8002155788880368e-01  2.0940890676588492e-01  1.6334424759952948e-01  4.9758728286735415e-01  4.1636706545265401e-01  4.1784097274021287e-01  4.9086096229301979e-01  -6.2761930341489913e-02  1.2577730664880207e-01  1.8916046641212020e-02  2.0582862729610671e-02  8.6798132064854032e-03  4.7993546638382728e-01  9.5651490701382499e-02  6.2057352287423546e-02  3.3451900044641314e-01  2.6166964053486202e-01  1.3649798187428502e-01  1.2356776747101089e-01  1.7698689586310570e-01  4.3206261078670383e-01  2.9622786064999729e-01  3.0134014493907185e-01  4.4308790731459585e-01  2.5089708456486748e-01  2.8570139554760438e-01  3.3268578707108165e-01  3.2957839546770062e-01  4.0417563525477218e-01  4.9013443017328967e-01  4.9337911356356151e-01  2.6557770607199599e-01  6.2299094821334255e-01  4.9067503728476658e-01  6.6258058729788893e-01  7.2811540343880665e-01  4.7006078496968040e-01  3.1226053701557882e-01  4.8053786347915073e-01  4.2276845363294974e-01  4.0558588861922146e-11  1.2485190466153304e+00  1.0654548533746973e+00  1.8186682721067202e-01  1.7315638843312575e-01  1.3746887733667609e-01  8.1736441310256619e-02  7.3410281642904673e-01  5.4534908269065008e-01  6.9685021743022024e-01  6.7107758040632637e-01  6.8241532081036094e-01  6.0759374250821274e-01  7.5691631894770281e-02  3.2369362559976307e-02  4.7334734013180635e-01  1.9544413684619269e-01  1.8515147875035040e-01  1.8201484857339517e-01  2.4794903750040101e-01  2.9181116635883547e-01  1.6956494904675901e-01  1.1193598030476135e-01  4.7322766737086436e-01  1.2278136608969122e-01  8.0865574882984431e-02  7.7428952006707005e-02  5.0585579539632430e-01  5.3473586034821929e-01  1.3765870804328145e-01  4.0761929822789822e-01  1.2855049412787495e-01  2.9385501572531331e-01  2.2405389075031390e-01  3.7481799225520213e-01  4.7923504795391625e-01  9.4185356640158771e-02  4.6130525270787820e-01  2.7259751752511979e-01  4.8471824848552225e-01  5.1827607950262666e-01  1.4849273692775611e-01  2