<?xml version="1.0"?>
<VTKFile type="UnstructuredGrid"  version="0.1"  >
<UnstructuredGrid>
<Piece  NumberOfPoints="2446" NumberOfCells="4585">
<Points>
<DataArray  type="Float64"  NumberOfComponents="3"  format="ascii">0 0.41 0  0 0 0  2.2 0 0  2.2 0.41 0  0.2404508497187474 0.2293892626146237 0  0.25 0.2 0  0.2404508497187474 0.1706107373853764 0  0.2154508497187474 0.1524471741852423 0  0.1845491502812526 0.1524471741852423 0  0.1595491502812526 0.1706107373853764 0  0.15 0.2 0  0.1595491502812526 0.2293892626146237 0  0.1845491502812527 0.2475528258147577 0  0.2154508497187474 0.2475528258147577 0  1.1 0 0  1.1 0.41 0  0 0.205 0  0.55 0 0  0.55 0.41 0  0.275 0 0  0.275 0.41 0  1.65 0.41 0  1.65 0 0  0.8250000000000001 0.41 0  0.8250000000000001 0 0  1.375 0 0  1.375 0.41 0  1.925 0 0  1.925 0.41 0  1.5125 0.205 0  1.7875 0.205 0  0.6875 0.205 0  0.9625000000000001 0.205 0  1.2375 0.205 0  2.2 0.205 0  0.4687002074688797 0.2068568464730291 0  1.99375 0.2152743902439024 0  2.0625 0 0  2.0625 0.41 0  2.2 0.3075 0  0.4125 0 0  0.4125 0.41 0  1.7875 0.41 0  1.375 0.1486128048780488 0  1.5125 0 0  1.7875 0 0  1.5125 0.41 0  0.8250000000000001 0.2613871951219511 0  0.9625000000000001 0.41 0  0.9625000000000001 0 0  0.6875 0.41 0  0.6875 0 0  0.1375 0 0  0.1375 0.41 0  1.2375 0 0  1.1 0.1486128048780487 0  1.2375 0.41 0  1.65 0.1486128048780487 0  1.126715909090909 0.2793064024390244 0  1.676715909090909 0.2793064024390244 0  0.8517159090909092 0.1306935975609756 0  1.348284090909091 0.2793064024390244 0  0.34375 0.3032389320646208 0  1.894702181800738 0.1282910975492754 0  2.092797818199262 0.1282910975492754 0  1.85625 0.3075 0  0.61875 0.3075 0  0.61875 0.1025 0  0.3648540804333487 0.1240075933101478 0  0 0.3075 0  0 0.1025 0  2.099172119769978 0.25625 0  0.48125 0.09238439620688085 0  0.5781001037344399 0.2059284232365146 0  0.48125 0.3196743479159776 0  0.7265881057911006 0.3055240343720796 0  1.99375 0.08395950269330846 0  1.459960956013612 0.3075 0  1.569025960719943 0.2986889805672169 0  0.75625 0.08213100772579164 0  1.03125 0.3278689922742084 0  0.923871252904788 0.3078247185783941 0  1.959375 0.3126371951219512 0  1.749222215368287 0.1025 0  1.275777784631713 0.1025 0  2.2 0.1025 0  1.225938124459196 0.3075 0  1.550777784631713 0.1025 0  1.000777784631713 0.1025 0  1.44375 0.07430640243902442 0  1.16875 0.07430640243902437 0  1.899250267340833 0.2229966846119207 0  0.1020898364287272 0.3140258291809757 0  1.766482954545455 0.2934032012195123 0  0.3405058858996321 0.2119987970531874 0  0.7710785630958338 0.1710968191298857 0  1.046078563095834 0.2389031808701144 0  0.2 0.3400647632937836 0  1.421109702350723 0.2261157654379721 0  0.2800464974185557 0.08982544815605742 0  0.098916018031319 0.09171660955420841 0  2.13125 0 0  2.118919042110979 0.3422084711244843 0  1.30625 0.41 0  0.89375 0 0  1.597888256393107 0.2173787389261347 0  0.20625 0 0  1.829299675393195 0.07400700849299596 0  1.71875 0.41 0  1.16875 0.41 0  2.038220665644273 0.332420740103091 0  0.34375 0 0  0.417496017710808 0.2696595573092803 0  0.2 0.07687845740457822 0  0.9295982307099278 0.1343158415898188 0  0.07390688010811153 0.1697064032433452 0  0.5238366813727013 0.2578302467013575 0  0.05452951551825875 0.25625 0  0.5229630068078351 0.1548816096928243 0  1.452769549894695 0.1548122580621249 0  1.369219062229598 0.07430640243902442 0  1.30625 0 0  0.8504409521244898 0.3356935975609756 0  0.8821881244591965 0.205 0  1.720943423819132 0.1714577452753128 0  1.157188124459196 0.205 0  1.094219062229598 0.07430640243902437 0  1.03125 0 0  1.304056576180868 0.1714577452753128 0  1.67579304192913 0.07430640243902437 0  0.2751941921308361 0.3346083473122598 0  1.209670467133757 0.1362100266964769 0  1.025335513626278 0.1700681449722324 0  0.7562500000000001 0.41 0  1.58125 0 0  0.7567170593862014 0.2409196493502535 0  0.6926714215682891 0.1272249611432207 0  0.4139715849905988 0.3397932387114203 0  0.9840787304190477 0.2717749043358119 0  0.06875000000000001 0.41 0  0 0.35875 0  0.9281250000000001 0.06276726142697993 0  0.5507396469029935 0.3219409231578227 0  0.5504468037989405 0.09136885600634273 0  1.58125 0.41 0  1.631724228912893 0.3381867502687533 0  1.825608881788174 0.14499488549201 0  1.85625 0 0  1.44375 0 0  1.44375 0.41 0  1.85625 0.41 0  2.13125 0.41 0  0.7562500000000001 0 0  0.89375 0.41 0  0.4812500000000001 0 0  0.34375 0.41 0  0.4812500000000001 0.41 0  0.20625 0.41 0  0.06875000000000001 0 0  1.16875 0 0  0.61875 0 0  0.61875 0.41 0  1.03125 0.41 0  1.71875 0 0  1.99375 0 0  1.99375 0.41 0  1.340625 0.3489494290853124 0  1.134375 0.3489494290853123 0  1.700180620188976 0.3438659752031281 0  2.135782184673599 0.07126652247502523 0  1.668441847249787 0.2129203728327609 0  1.295782514339747 0.2378437748815763 0  0.8233075729931248 0.06842334294821524 0  1.409375 0.3520314716057996 0  0.403505597322782 0.182067236678212 0  0.378125 0.05794951541303489 0  0.3043468223249023 0.1518321115979534 0  2.129248544730567 0.1906135162504124 0  2.060771381434487 0.1989445750470348 0  2.013252586573865 0.1496169464686054 0  1.942766402200229 0.1734448904596831 0  1.895522487186454 0.06076163953489683 0  2.069553871656643 0.06605731020975725 0  1.274680914880868 0.3520219391081363 0  1.614713220494657 0.09473434380863296 0  0.7899021319497519 0.3149123934144827 0  0.69518737419149 0.0634051089053758 0  0.2971740475496061 0.2592172353407536 0  1.72990325744076 0.2380068107952482 0  1.356580098625191 0.2120393231351682 0  2.034370752044885 0.2668681600792073 0  1.51768709249349 0.3426260931494756 0  1.561883724969884 0.1650446847858835 0  1.197344062229598 0.2523725417393646 0  1.804085235518364 0.3468178408964637 0  1.817887819205233 0.2589243285818559 0  1.905897727272727 0.3485060975609756 0  0.6719798073392919 0.2688965171178177 0  0 0.05125 0  0.653125 0.35875 0  0.6396896119294488 0.1627615407790282 0  0.4274150154087412 0.1242548552168279 0  1.192836486056382 0.3562350748565544 0  0.8279124365364005 0.183856489168822 0  1.097485222388854 0.2083571153401724 0  1.28257088594801 0.2944411014911587 0  1.474860187679412 0.2504218616229368 0  1.406767003493824 0.2829282258560709 0  0.446875 0.04619219810344041 0  0.515625 0.04585361801037557 0  0.592043440706648 0.05125 0  1.845656689180403 0.1998310418452388 0  2.144958525570388 0.2909790873294231 0  0.6171090763650112 0.2492366900333857 0  2.2 0.15375 0  0.5145586920831158 0.3648371739579888 0  1.57794966442982 0.3540357145964566 0  0.721875 0.3633107922168974 0  0.0496154796471391 0.333125 0  0.5843750000000001 0.3662560860076676 0  0.5810878747760798 0.1474002776121195 0  1.508991196088596 0.1421783375065625 0  0.8840670607017558 0.2640994375393898 0  0.09776612425612034 0.2204896805326566 0  1.50436820029908 0.06143401634903343 0  1.223857000523521 0.0823554862453532 0  1.153316824384777 0.1289850171317837 0  2.148922302309752 0.1258841779285271 0  0.309375 0.04312325590431198 0  1.621993280276081 0.2841214267927899 0  1.550118654119087 0.2461998729100966 0  1.327182649291491 0.1216967252533594 0  1.051977450479407 0.1221382572915816 0  1.753125 0.04556020050186112 0  1.271875 0.04556020050186116 0  0.9816084133102366 0.05126138213476004 0  1.039051841454368 0.0572224914831029 0  0.9719230514536006 0.3480477870845102 0  1.94956388244759 0.1180512551534177 0  1.949997712993411 0.04965831614304109 0  1.771961817615021 0.1530278789497521 0  1.909246823951428 0.2812757146784527 0  0.2459536687882397 0.04668633953831142 0  1.948575539857022 0.2445328248721197 0  1.697271520964565 0.1233917627620729 0  0.7964897648514618 0.1211426571931604 0  1.065625 0.3689344961371042 0  1.085849084308977 0.3170853572226867 0  0.4702981435440001 0.260434880697798 0  1.577403511714593 0.05463601888079143 0  0.05622663515370135 0.05493816910862376 0  0.3267207591099919 0.3566194660323104 0  0.9003051618565143 0.3564049499960621 0  1.751571320346033 0.3651102912045228 0  0.1583785085108421 0.2994699345738728 0  0.1455283439499995 0.3542795598723423 0  2.2 0.35875 0  0.2347662494194072 0.298325008655211 0  0.1527284455616188 0.1065771775690181 0  0.1382139529076665 0.05427454456341477 0  0.8749341636311069 0.05110114999892954 0  0.643661668713109 0.05693499781019222 0  1.466879772203159 0.3611261772912453 0  1.990280163552011 0.3564754268533217 0  1.17471064520912 0.2990917256188288 0  0.5202693090594349 0.206382495511728 0  0 0.25625 0  2.2 0.25625 0  2.2 0.05125 0  0 0.15375 0  1.853978576207987 0.35875 0  0.9787513713939683 0.1487523696999336 0  0.240625 0.3722153812029779 0  1.515638456102889 0.2882700110184686 0  0.09048297387599738 0.3637717362208066 0  2.150453692751374 0.2387066338105111 0  1.323782677156475 0.04897634338873398 0  0.8074131292871642 0.3624701995505916 0  1.409375 0.03715320121951221 0  1.406484531114799 0.1087852750766809 0  1.134375 0.03715320121951218 0  1.627401732573545 0.04552157221025036 0  0.1170173172005315 0.1427610859166811 0  2.045405893604797 0.1105340662939892 0  1.255408269734577 0.1577307500159216 0  2.028125 0.03707597992059326 0  0.4743610090857199 0.1421513964721819 0  0.9354010469015898 0.250631300585664 0  0.04420832937638274 0.128125 0  0.8922386349349938 0.0992956419364831 0  0.1197849154434487 0.2663398672460083 0  1.248258025468107 0.2565907092181813 0  0.3746885856929528 0.370723531618974 0  1.203125 0.0366132337404304 0  0.5724622277005015 0.2751253816079333 0  0.3365425205162783 0.08395777655057959 0  2.072662025974815 0.2975086504196739 0  0.4581080832182547 0.3648371739579888 0  0.3874522734668214 0.2295447548840689 0  0.7827853612484443 0.04106550386289586 0  1.887722846421017 0.1760882698830035 0  1.472640588990488 0.1118278026240017 0  1.865937103925594 0.2604137786483804 0  1.463913572748262 0.2030442564990043 0  1.376426316059077 0.3186741374914345 0  0.6641993820150034 0.3141688596240831 0  0.2943117490824315 0.2130987422685822 0  0.3478153998082709 0.1666571081082676 0  0.3427990510599805 0.2575950027870776 0  0.7997118993855807 0.2216171933356366 0  
[...]
<PointData  Scalars="f_37"> 
<DataArray  type="Float64"  Name="f_37"  format="ascii">4.0740180390215847e-01  4.9629544768369993e-01  -4.5738394588682904e-10  -5.3395302523089623e-10  -4.6810309096421576e-01  -3.7124821185291140e-01  -4.1464964268004423e-01  -6.6477306973275840e-01  -6.2910556070045598e-01  4.5399751569309710e-01  1.9937245057042743e+00  3.1144713719891243e-01  -1.2401414881806261e+00  -7.1144810375607270e-01  1.7861928782939046e-01  1.7813386036921838e-01  7.7544373226863195e-01  1.0635540273183844e-01  1.1640340082130463e-01  4.8056019332819062e-02  1.9401457705155847e-02  8.9453747515019610e-02  8.9553796599888269e-02  2.2233531382909957e-01  2.2366081068099819e-01  1.3364380355366226e-01  1.3369897350287660e-01  4.4041637236155777e-02  4.4223719468714943e-02  1.1144131940774887e-01  6.6819932275220179e-02  2.4823658407478288e-01  2.0052406670579032e-01  1.5605921263094313e-01  -3.5696484058235751e-10  3.7133396039304828e-01  3.3372010801912294e-02  2.1811816954030529e-02  2.3048575621729354e-02  -2.5685503881508663e-10  -6.8812084342769544e-02  -5.4377224957934553e-02  6.7198065411042895e-02  1.3380388334833437e-01  1.1151826093508169e-01  6.7190621020821836e-02  1.1203191620648786e-01  2.2210864983860634e-01  2.0092149030606235e-01  2.0094603248333967e-01  2.3338806676298088e-01  2.3683233175938725e-01  4.1250592557698212e-01  3.2900898780729604e-01  1.5605595005683515e-01  1.7831249330585133e-01  1.5613558320117651e-01  8.9148031215781243e-02  1.7389568977933326e-01  8.4858735622604611e-02  2.1837382735992322e-01  1.3809201305885052e-01  -3.2671018803702001e-01  4.9407049386958189e-02  1.7351352280267157e-02  5.5684055795506227e-02  2.3044588513225328e-01  2.3023920082044780e-01  -6.1750069490414172e-01  5.0757044467604084e-01  5.9141677866155762e-01  1.6325893734993231e-02  5.0575118837999547e-02  3.2389312918698981e-01  6.1516844957235854e-02  2.3475651915077472e-01  3.3407566209696683e-02  1.1990093720573866e-01  1.0224855609168172e-01  2.3273128357186723e-01  1.8932101074951255e-01  2.0670853373593825e-01  3.8995801918353695e-02  7.2998526714030412e-02  1.4989149404586766e-01  -1.1254218872910108e-09  1.5789284928437972e-01  1.0521795262730753e-01  1.9452969246562324e-01  1.2264889035478908e-01  1.6725133346086196e-01  4.8702904575979443e-02  4.4529946791673347e-01  7.0228108048637730e-02  -7.0569305968580587e-01  2.3108896118055872e-01  1.8707297252789151e-01  1.0431325684169863e-01  1.2628650521380752e-01  -1.7264779655008525e-01  5.4056960760691686e-01  1.0892704000834167e-02  1.3018887171541368e-02  1.4484305766736985e-01  2.1212040824375913e-01  9.7602209049468189e-02  2.4708527331996563e-01  6.0093436206780967e-02  7.7757389266827931e-02  1.6680636759003692e-01  2.6289797432170824e-02  -5.2705320049073794e-02  -1.7330640928331295e-01  1.4300344543366178e-01  2.0595412877421804e-01  9.2072263823383149e-01  2.9405717436708168e-01  7.1514030236790715e-01  3.3537387054119983e-01  1.2114397586486754e-01  1.3477271526453560e-01  1.4520384811101231e-01  2.1816106509014746e-01  2.1333793017485894e-01  7.7605985374960273e-02  1.6902010754091157e-01  1.7929101030866185e-01  1.8929555919517285e-01  1.4527096759096617e-01  8.4933380696176980e-02  -1.0381825668411949e-01  1.6055652178726199e-01  1.9043146544922668e-01  2.3257768092105469e-01  1.0052954057917581e-01  2.3302277625707160e-01  2.4047392649001162e-01  -7.3869977399222242e-02  1.9704654527644297e-01  3.9477343052060887e-01  4.1999419839108126e-01  2.0644322381342403e-01  1.6014814310552450e-01  1.5889973004146252e-01  1.0010339241842056e-01  9.2245041132871644e-02  6.0596145162195178e-02  5.5442854211517296e-02  1.2261166811155494e-01  1.2224404751283700e-01  5.5412649653260648e-02  1.1228981530672345e-02  2.3399195824314964e-01  2.1154527681734603e-01  -1.8896306432093824e-02  -5.6934666917235810e-02  7.4779496134707952e-03  1.7705688629400240e-01  4.8348801866067598e-01  1.6694861528475244e-01  2.0822235100726239e-01  2.0493223548272074e-01  1.8921293381461352e-01  7.7993242047271649e-02  3.3363611140865640e-02  3.2966987895564973e-02  1.3922502764661335e-01  1.7267984753948845e-01  8.1029717743321350e-02  1.0408545738895667e-02  8.6137513330937651e-02  1.4660720152862908e-01  2.2335111138522590e-01  1.2818840133397455e-01  -4.2986957699930006e-01  -1.2473996519853972e-01  -5.7624400909893370e-01  1.1468512889983113e-02  2.2522500931495812e-02  3.0198694722271966e-02  4.1633289586528850e-02  4.9197886627729052e-02  2.1021399165186607e-02  1.5012028668028071e-01  9.4887209568561545e-02  2.2703898928905686e-01  2.3686021628594561e-01  -5.8739998189672316e-01  7.6198465683771435e-02  1.3675718834229308e-01  2.6821633592508883e-02  1.1048580678538053e-01  1.0344884227389531e-01  1.6252794531641676e-01  6.4231357264666181e-02  6.1899210606095288e-02  4.7569160511032618e-02  2.4549927814427114e-01  5.0860164904406391e-01  2.2663329282248973e-01  2.5933164420190524e-01  -1.8218454568088074e-01  1.6328519316643827e-01  2.2198938878269933e-01  1.7863442260462700e-01  1.4876574346654109e-01  1.1754131706942120e-01  1.2861279372987394e-01  -5.3419264356112654e-02  4.2113554608055187e-02  1.8356096227662747e-01  5.7405617121885626e-02  8.9278718363543733e-03  2.6854840077059433e-01  -3.5696484058235751e-10  6.2095475179918598e-02  1.0080307510708854e-01  2.3483781435948173e-01  4.4393264513049513e-01  1.7290972222352688e-01  2.7613890253801132e-01  1.1199681391070647e-01  2.1291045295290900e-01  1.1178984997232264e+00  1.1285000398574714e-01  1.5826252209501834e-01  1.6964948120207543e-01  8.3000587229596669e-03  -5.1501018767990833e-02  9.3683460294857593e-02  1.0533950009978851e-01  1.4156425282657656e-01  1.8614392521994352e-01  7.2313133193462817e-02  1.5051131659097525e-01  1.9795213230599293e-01  1.8833181476333039e-01  1.9893832111952228e-01  4.0514201735512942e-02  4.0297449199418627e-02  6.9342046835532259e-02  4.7130035088776716e-02  8.3082240114584108e-02  4.0751490790309125e-02  8.1493494152440199e-02  2.2697617455288582e-01  1.8391663808508033e-01  1.8061506542695896e-01  1.8874991126795121e-01  1.0081400826127940e-01  5.0226894463159610e-01  -9.2138139495397370e-02  2.1069614479930948e-01  7.2612311269501614e-02  2.0346241471073281e-01  3.0274367303106964e-01  -5.3395302523089623e-10  -2.2494068256043442e-01  3.4140681097218634e-01  4.0659137417136060e-01  2.1521388083638668e-01  2.2652959898923722e-01  1.1864640262976603e-01  3.4142215039330771e-02  1.6617814299624134e-01  4.2303649068208360e-01  6.6740873274230994e-01  -5.1992384329180386e-10  -9.1642554811989016e-10  7.2326896859688428e-01  5.6114795717617134e-02  1.9800119407230435e-01  6.9824717014758064e-02  1.1088429728460354e-01  3.8559786330084017e-01  8.0426588663962875e-03  1.4221632969370165e-01  2.2487733503708723e-01  1.2824262837866202e-01  1.2873706351796985e-01  1.7281311950033343e-01  9.2859296318028695e-02  8.0699262730596277e-01  2.4946095423384714e-02  1.5317270102791411e-01  2.7795582922894174e-02  1.9168168349727449e-01  2.0480129131176017e-01  6.7399289397649309e-01  2.1208069429252624e-01  6.4411088111833825e-01  1.5430556943158166e-01  -7.4356435086154318e-02  1.6158812201223696e-01  2.5219340714842586e-01  -2.6407748635743805e-01  2.0632299216402729e-02  -1.6716161843349567e-02  -5.1084972337173440e-01  2.2986175742006124e-01  5.0557148927794490e-02  1.1793260253056198e-01  5.4115806427093426e-02  1.1932492550214438e-01  1.3347022643074802e-01  2.3581920143734245e-01  -5.5688360742403797e-01  -7.8586195311353790e-01  -6.9935633124559526e-01  2.2629557658658359e-01  7.7431861306490338e-02  6.9011783793060069e-02  1.5375963571022644e-02  2.3957803519373685e-01  2.3509038852242159e-01  1.9428770437501272e-01  1.8976662905563493e-01  1.7990668247316333e-01  1.3048187029915406e-01  -3.7926561289697813e-01  2.8202260695415062e-02  9.6734136875168616e-02  2.6558051027957591e-01  2.4103162371779085e-01  6.2896231496165869e-02  8.4844988306866387e-01  3.3941400407193456e-02  6.0704476018385248e-03  1.6907351924707378e-02  2.0239756623743201e-02  4.6459244586916970e-01  2.3577915508401606e-01  9.4640091754749522e-02  6.5802319059952319e-02  3.1409038014398968e-02  3.4163523590749506e-01  1.3249307116929854e-01  1.6253012165213152e-01  1.1659432397028387e-01  9.2198840492036735e-02  1.0561165520162621e-01  2.1742024072301752e-01  8.3147813446039193e-02  7.9712958867207320e-02  1.9469299290432873e-01  1.9247343534962513e-01  6.3308391114231411e-03  6.6293796111688754e-03  4.0484738517858615e-01  2.3673502737131458e-01  2.3105633013675414e-01  2.0698600025725658e-01  2.1328862646693286e-01  9.1598714793523342e-02  6.5322856899279164e-02  5.3827565740579571e-02  1.0547707799275753e-01  4.1098500723080036e-02  -7.7072004534116650e-03  -2.8632329602631834e-01  6.1229945380555442e-02  1.8231567872084678e-01  7.5156092626831872e-02  8.7218490805714768e-02  2.0091351419954270e-01  -1.1722608677786980e-01  2.6137794713043228e-01  2.3170705960812946e-02  2.0596726762052783e-01  1.0481794465862031e-01  1.5660688705145404e-01  1.7124935459505761e-02  1.1867166714340628e-01  2.7718043530492786e-01  1.8350093550250335e-01  5.1334931721170596e-02  9.8928053896385787e-02  2.2816540554888345e-01  -2.1607588756903975e-01  -2.3645532080037817e-02  2.3578329953856111e-01  1.7320815810804244e-01  2.1741323174036167e-01  1.7357431109344965e-01  1.7223704197244682e-01  1.2896690291823052e+00  6.3786782104164079e-03  1.4256563693428539e-01  3.4149325949629439e-02  2.1769476732150250e-01  4.9673524323728437e-02  5.5532038560834732e-02  5.0034842359212794e-02  4.3901723444353689e-02  1.1171743005968812e-01  7.8953357630785856e-02  8.6656335216652239e-02  8.8640602663463172e-02  4.9323484367998705e-01  2.1266992554933484e-01  -3.3815343397638026e-01  4.0782858881371969e-01  2.6460616587998122e-02  1.2741689159640987e-01  2.4747145305433035e-01  1.9557566259322059e-01  5.4263713081271781e-01  1.1655094571585792e-01  -3.1679942465456204e-02  6.8260667200931144e-02  2.3671845231060851e-01  2.0457324793318099e-01  2.3412059925483902e-01  1.1517542096985453e-01  7.8530255945841365e-01  1.6834515218658427e-01  2.1824543428142570e-01  2.7113602929219143e-02  1.2255894195858580e-01  -8.3581640571665713e-03  2.3084612582212741e-01  1.1141066449691228e-01  -3.3387269096877413e-02  2.8477521608264988e-01  4.1732891719500609e-01  1.8528595693552383e-01  3.4518508348433841e-01  -5.8407180487628629e-01  1.7723346134257667e-01  3.4797473532544898e-01  2.1628669626229563e-01  5.8712446819278363e-01  1.0852683112698934e-01  7.3348017191904785e-02  1.4954359040666301e-01  7.5737146648884701e-02  1.4718623662999150e-01  1.3481300859129330e-01  1.3623046387353757e-01  1.8015944716508814e-01  8.3327021659685738e-02  1.3967197351393146e-01  3.6572642275254155e-02  7.4035734907601392e-01  -1.4580824514897450e-01  1.6327292388633058e-01  1.5497910836378073e-01  5.6909300597509460e-01  -1.0603674841158138e-02  9.6880740760204712e-02  8.6383865476838684e-02  -4.9273415887619820e-01  -1.1344467459054189e-01  -4.4142229166042152e-01  5.3762037529553941e-01  3.7100665619356638e-01  9.2924402065738418e-02  9.7969422804322748e-02  1.0843921771148737e-01  2.4493715018503873e-01  6.1586428131051613e-02  2.3260035730764078e-01  2.2154774362405226e-02  2.7977331484645214e-02  1.4415505191202516e-01  -4.4637461363896613e-01  1.4792755093934682e-02  1.3468432941477756e-02  5.9742347675682253e-03  6.9346014697296107e-02  1.0632151886606120e-01  1.8969499331104026e-01  1.9255841965858822e-01  1.9597782327290020e-01  2.3557668062914888e-01  1.2844663594566152e-01  1.7862486485912191e-01  2.0304280589953166e-01  2.0993909734542382e-01  2.1814591392182936e-01  2.2090045621327539e-01  5.7129467306798890e-03  1.2908413725581389e-02  1.9269253942610859e-01  3.9370829569676254e-02  1.4718158247620081e-02  2.3334091723879580e-01  1.6154023353500210e-01  2.0591921506433858e-01  5.5318583295163620e-02  6.4413963344627859e-02  2.9803700670893241e-01  -9.9963234929031725e-02  -4.8910778968303689e-02  2.0638413850762682e-01  -6.4139199067666541e-01  2.0104652193202960e-01  2.2578297361874647e-01  1.6834336796276939e-01  1.7239559691025011e-01  1.4457275133780220e-01  1.3921993066761346e-01  1.3383681727787872e-01  1.7159138279325536e-01  1.2455473448363806e-01  1.2702532354542139e-02  1.6213857999239636e-01  2.2731169698656073e-01  1.2538587039329224e-01  -6.1719561668926370e-01  -5.7407188773925788e-01  -7.3265840270003629e-02  -6.8006354356692569e-02  1.0087497305051112e-01  2.0043132066315350e-01  1.9659806910445032e-01  2.1390008771598307e-01  5.6020402046381833e-02  1.5588382238254464e-01  1.9961588899582539e-01  9.0986912829138650e-02  2.4288601983656041e-01  2.2174569556718257e-01  1.2787277558288837e-01  8.4148609798037455e-02  3.3452889334661021e-02  2.7656868857942524e-02  3.8837007153960518e-02  1.5029115281237235e-01  1.7528897323498513e-01  1.6705075761117721e-01  -2.0413481745201863e-02  1.3947385802651943e-01  1.8448223819187851e-01  5.2016827718007769e-03  1.7131723271189298e-02  1.7274415956455619e-01  1.2830115800308523e-01  1.1690163893327175e-01  7.2452970002490055e-02  1.8406497482560844e-01  7.1988952639707351e-02  2.3508704663237126e-01  1.2873577198649069e-01  2.3810108903207577e-01  5.1605226101544433e-03  2.0671949554729574e-01  -6.6128466747090525e-02  -5.2401894433337676e-02  -3.0272969684039905e-02  4.5940617311369475e-01  9.3204330627398246e-02  1.3930868794466553e-01  3.7071661758382718e-01  2.3066112359630450e-01  2.2855129146186048e-01  -1.2405151726910124e-02  1.7126981484145870e-01  6.0740533007564497e-02  1.6622895056589734e-01  3.8339388140621031e-02  2.2604596295536372e-01  1.9503081314636919e-01  1.6169470705938896e-01  9.4418006122587023e-02  3.9571192303772033e-02  1.5044457123197144e-01  2.7679289747242410e-02  3.9209676210612388e-02  7.8264432030953193e-02  3.0632707321279869e-02  2.2836384953651651e-01  1.2340840939033509e-01  1.6681113570904529e-01  -2.6896448502973619e-01  1.4038798767143842e-01  1.4397299514053119e-01  1.6717309464355726e-01  1.0723209481094267e-01  1.1434911765751608e-01  4.7031700030011822e-02  2.3684786029189991e-01  1.2292148318423256e-01  1.2534689485052947e-01  8.0834541973202889e-02  4.9856700791833415e-02  7.9918452691630129e-02  -5.7991302725407791e-02  2.5270232190330882e-01  6.0087008024806779e-02  8.6191923186062724e-02  1.4372021743440089e-01  4.4422607108362745e-02  1.1420445726796852e-01  2.2204510482089931e-01  1.8360441539551994e-01  1.9744964809073148e-01  7.3718419966743731e-01  -2.8044189349819787e-01  9.7306149318044863e-02  2.1074269552996450e-01  2.2329318169343512e-02  1.8153146860733386e-02  1.8911103458648301e-01  2.3362251547452204e-01  1.3561607733734232e-01  7.8890528541955174e-01  1.5477612910835156e-01  4.4625866632782576e-02  4.6279636747278828e-02  3.4808273266092349e-01  1.8442231641084533e-02  2.9848870997026233e-01  2.4259139881067385e-01  2.3897759654516940e-01  2.0965356495432294e-01  2.5989876865782739e-02  6.4035570629770971e-02  1.8432147491968010e-01  5.9371623286146147e-02  8.1464420413082259e-02  5.7890568909984549e-02  3.8625358004643333e-02  5.1414711319744000e-03  -3.8382240838942906e-02  2.0179487457798478e-01  1.0212431802256863e-01  2.2237310094050106e-01  2.0420876362592402e-01  1.0019487801403734e-01  9.0333239742844337e-02  4.6577997129212217e-01  4.7085348214023104e-02  -7.0325294148274675e-01  1.0300865096814127e-01  -5.0334595983033503e-01  -4.5911607580241942e-01  3.6619199539171543e-01  2.5358664396245367e-01  9.7842471557944288e-02  1.7489880080870090e-01  1.0809017178640279e-01  -3.2272759695753481e-02  1.3910370300955027e-01  2.0105075239984740e-01  2.3811664187576689e-01  2.8632410460404678e-01  5.2763542008653429e-02  2.3666014535263111e-01  4.2035819876995242e-02  1.5751943769441029e-01  2.1116471303166090e-01  1.0298430914437783e-01  6.3004487650392918e-02  1.8438759328379084e-01  1.6248256630584973e-01  1.0859704204500733e+00  7.3374412403482497e-02  2.1051237747746207e-01  1.5251808835223063e-01  1.5868256017871576e-01  1.6670071769376280e-01  8.7073456530792487e-02  1.1760860475014219e-01  6.5863850860174281e-02  5.8926963126561246e-02  1.7263782692901467e-02  1.1390849812861796e-01  3.6821398946209803e-02  4.9674538442087701e-01  4.9499717474791871e-01  1.0692343942148466e-01  4.8680075279075329e-02  1.4724253850822425e-01  5.8520911139551424e-01  -3.9247293897815361e-03  1.0553421669165026e-01  1.8436730174611288e-01  1.5001873148166656e-01  8.8790306839581848e-02  3.5528812158994241e-02  5.2655548003574353e-02  1.3877016292288571e-01  -1.5904735637615960e-01  1.5301544534091110e-01  5.8797668969649261e-02  2.0921141424690820e-01  7.4954758987331782e-01  -5.4673367851655152e-01  -6.9754700827085570e-02  1.6122400383856456e-02  2.3110006185978743e-01  6.0286409100473122e-02  1.5820393006411068e-01  9.2473688542003052e-02  5.2040836493602846e-02  -5.1992384329180386e-10  1.7872901435528923e-01  1.8392869927349853e-01  1.7864709331600009e-01  1.7393699892898681e-01  2.1834186158381882e-01  8.9433631423680229e-02  2.5574982237958149e-01  5.6218646679396444e-03  1.9131585133017939e-01  2.1987933040336010e-02  1.9344947079547112e-01  3.6839702222322829e-01  3.4998613817436813e-01  4.9268695651326480e-02  2.1073417907584047e-01  1.3094813158250224e-01  1.2136978022407324e-01  1.1787118523408872e-01  1.1444317906026077e-01  1.2341865415943806e-01  5.3349578002284286e-02  2.2598992749887506e-01  2.3604679338412463e-01  1.9430111659980823e-01  2.3033828430090680e-01  2.1824728510565347e-01  1.3328733974037413e-01  1.2658476797517729e-01  2.2914109845510866e-01  1.7757166992753515e-01  5.2520398725370801e-02  2.0480943970621771e-01  2.5444662081415487e-01  2.4982857570831246e-01  2.3452543796249903e-01  -1.3470088682277709e-09  1.7185702761443533e-01  1.5380172102353182e-01  1.4943608968033245e-01  2.2046641626637620e-01  1.4940998545307280e-01  2.3392769602402996e-01  7.6120059660708853e-02  2.1764616281928570e-01  1.7588004529776452e-01  2.1416524012788957e-01  -7.2313999471309076e-01  3.1320593066245843e-02  1.8795061980424496e-01  2.2197050513652772e-01  1.0332589571262239e-01  1.1662440764487664e-01  9.0901137683919553e-02  -2.1371368715103294e-02  2.3108721841897559e-01  2.3159665608061694e-01  1.9856877413157420e-02  -3.9510090780827267e-01  6.9617144159242569e-02  1.0288851605558699e-02  1.1308935082884998e-02  4.7120406472304704e-03  8.7075732550650056e-02  5.3102268968403872e-02  3.4433617629950147e-02  1.8640714388518911e-01  1.4629685521943561e-01  7.5139927400816500e-02  6.8995354949253060e-02  9.8461869542535760e-02  2.4138810658199272e-01  1.6506088154764817e-01  1.6789064545522511e-01  -1.5685695474341141e-01  1.3983547299875115e-01  1.5933629740478306e-01  1.8530109303105061e-01  1.8357157778079611e-01  2.2418857947394716e-01  1.4242388732275350e-02  2.7578840893256001e-02  1.4822038528055922e-01  4.9417976019597648e-01  1.5516420687138457e-01  4.8357637791555891e-01  2.9803094437161759e-01  5.3333809609670810e-02  1.7405085775211784e-01  -5.3322695931767888e-02  2.3466381435086212e-01  -3.5696484058235751e-10  1.0801731203878870e+00  8.7456833153588787e-01  1.0110646200623778e-01  9.6099195838173543e-02  -1.7742367770435866e-01  4.5288047585357670e-02  5.0771426042376677e-01  -2.4185447007327437e-01  4.5163028943605837e-01  4.5509481731242973e-01  5.6513038078936995e-01  4.5094699477252131e-01  4.1930031799728075e-02  1.7867814489874217e-02  2.0739163433760713e-01  1.0878418961289207e-01  1.0303445387145560e-01  1.0131332746717435e-01  1.3821609734273357e-01  1.6256986987503946e-01  9.4351424369693418e-02  6.2155534397987162e-02  1.3586511107406185e-01  6.8091137324854542e-02  4.4785802595719661e-02  4.2736666118775468e-02  -1.2844305676102802e-01  -2.7436260748274388e-01  7.6683040205719075e-02  2.2659368563700616e-01  7.1393927433316892e-02  1.6410511500888764e-01  1.2469135685995400e-01  2.0876055645344113e-01  6.9770290067394908e-02  5.2249352490918659e-02  -4.0197412415655387e-02  1.520264620002739