<?xml version="1.0"?>
<VTKFile type="UnstructuredGrid"  version="0.1"  >
<UnstructuredGrid>
<Piece  NumberOfPoints="2446" NumberOfCells="4585">
<Points>
<DataArray  type="Float64"  NumberOfComponents="3"  format="ascii">0 0.41 0  0 0 0  2.2 0 0  2.2 0.41 0  0.2404508497187474 0.2293892626146237 0  0.25 0.2 0  0.2404508497187474 0.1706107373853764 0  0.2154508497187474 0.1524471741852423 0  0.1845491502812526 0.1524471741852423 0  0.1595491502812526 0.1706107373853764 0  0.15 0.2 0  0.1595491502812526 0.2293892626146237 0  0.1845491502812527 0.2475528258147577 0  0.2154508497187474 0.2475528258147577 0  1.1 0 0  1.1 0.41 0  0 0.205 0  0.55 0 0  0.55 0.41 0  0.275 0 0  0.275 0.41 0  1.65 0.41 0  1.65 0 0  0.8250000000000001 0.41 0  0.8250000000000001 0 0  1.375 0 0  1.375 0.41 0  1.925 0 0  1.925 0.41 0  1.5125 0.205 0  1.7875 0.205 0  0.6875 0.205 0  0.9625000000000001 0.205 0  1.2375 0.205 0  2.2 0.205 0  0.4687002074688797 0.2068568464730291 0  1.99375 0.2152743902439024 0  2.0625 0 0  2.0625 0.41 0  2.2 0.3075 0  0.4125 0 0  0.4125 0.41 0  1.7875 0.41 0  1.375 0.1486128048780488 0  1.5125 0 0  1.7875 0 0  1.5125 0.41 0  0.8250000000000001 0.2613871951219511 0  0.9625000000000001 0.41 0  0.9625000000000001 0 0  0.6875 0.41 0  0.6875 0 0  0.1375 0 0  0.1375 0.41 0  1.2375 0 0  1.1 0.1486128048780487 0  1.2375 0.41 0  1.65 0.1486128048780487 0  1.126715909090909 0.2793064024390244 0  1.676715909090909 0.2793064024390244 0  0.8517159090909092 0.1306935975609756 0  1.348284090909091 0.2793064024390244 0  0.34375 0.3032389320646208 0  1.894702181800738 0.1282910975492754 0  2.092797818199262 0.1282910975492754 0  1.85625 0.3075 0  0.61875 0.3075 0  0.61875 0.1025 0  0.3648540804333487 0.1240075933101478 0  0 0.3075 0  0 0.1025 0  2.099172119769978 0.25625 0  0.48125 0.09238439620688085 0  0.5781001037344399 0.2059284232365146 0  0.48125 0.3196743479159776 0  0.7265881057911006 0.3055240343720796 0  1.99375 0.08395950269330846 0  1.459960956013612 0.3075 0  1.569025960719943 0.2986889805672169 0  0.75625 0.08213100772579164 0  1.03125 0.3278689922742084 0  0.923871252904788 0.3078247185783941 0  1.959375 0.3126371951219512 0  1.749222215368287 0.1025 0  1.275777784631713 0.1025 0  2.2 0.1025 0  1.225938124459196 0.3075 0  1.550777784631713 0.1025 0  1.000777784631713 0.1025 0  1.44375 0.07430640243902442 0  1.16875 0.07430640243902437 0  1.899250267340833 0.2229966846119207 0  0.1020898364287272 0.3140258291809757 0  1.766482954545455 0.2934032012195123 0  0.3405058858996321 0.2119987970531874 0  0.7710785630958338 0.1710968191298857 0  1.046078563095834 0.2389031808701144 0  0.2 0.3400647632937836 0  1.421109702350723 0.2261157654379721 0  0.2800464974185557 0.08982544815605742 0  0.098916018031319 0.09171660955420841 0  2.13125 0 0  2.118919042110979 0.3422084711244843 0  1.30625 0.41 0  0.89375 0 0  1.597888256393107 0.2173787389261347 0  0.20625 0 0  1.829299675393195 0.07400700849299596 0  1.71875 0.41 0  1.16875 0.41 0  2.038220665644273 0.332420740103091 0  0.34375 0 0  0.417496017710808 0.2696595573092803 0  0.2 0.07687845740457822 0  0.9295982307099278 0.1343158415898188 0  0.07390688010811153 0.1697064032433452 0  0.5238366813727013 0.2578302467013575 0  0.05452951551825875 0.25625 0  0.5229630068078351 0.1548816096928243 0  1.452769549894695 0.1548122580621249 0  1.369219062229598 0.07430640243902442 0  1.30625 0 0  0.8504409521244898 0.3356935975609756 0  0.8821881244591965 0.205 0  1.720943423819132 0.1714577452753128 0  1.157188124459196 0.205 0  1.094219062229598 0.07430640243902437 0  1.03125 0 0  1.304056576180868 0.1714577452753128 0  1.67579304192913 0.07430640243902437 0  0.2751941921308361 0.3346083473122598 0  1.209670467133757 0.1362100266964769 0  1.025335513626278 0.1700681449722324 0  0.7562500000000001 0.41 0  1.58125 0 0  0.7567170593862014 0.2409196493502535 0  0.6926714215682891 0.1272249611432207 0  0.4139715849905988 0.3397932387114203 0  0.9840787304190477 0.2717749043358119 0  0.06875000000000001 0.41 0  0 0.35875 0  0.9281250000000001 0.06276726142697993 0  0.5507396469029935 0.3219409231578227 0  0.5504468037989405 0.09136885600634273 0  1.58125 0.41 0  1.631724228912893 0.3381867502687533 0  1.825608881788174 0.14499488549201 0  1.85625 0 0  1.44375 0 0  1.44375 0.41 0  1.85625 0.41 0  2.13125 0.41 0  0.7562500000000001 0 0  0.89375 0.41 0  0.4812500000000001 0 0  0.34375 0.41 0  0.4812500000000001 0.41 0  0.20625 0.41 0  0.06875000000000001 0 0  1.16875 0 0  0.61875 0 0  0.61875 0.41 0  1.03125 0.41 0  1.71875 0 0  1.99375 0 0  1.99375 0.41 0  1.340625 0.3489494290853124 0  1.134375 0.3489494290853123 0  1.700180620188976 0.3438659752031281 0  2.135782184673599 0.07126652247502523 0  1.668441847249787 0.2129203728327609 0  1.295782514339747 0.2378437748815763 0  0.8233075729931248 0.06842334294821524 0  1.409375 0.3520314716057996 0  0.403505597322782 0.182067236678212 0  0.378125 0.05794951541303489 0  0.3043468223249023 0.1518321115979534 0  2.129248544730567 0.1906135162504124 0  2.060771381434487 0.1989445750470348 0  2.013252586573865 0.1496169464686054 0  1.942766402200229 0.1734448904596831 0  1.895522487186454 0.06076163953489683 0  2.069553871656643 0.06605731020975725 0  1.274680914880868 0.3520219391081363 0  1.614713220494657 0.09473434380863296 0  0.7899021319497519 0.3149123934144827 0  0.69518737419149 0.0634051089053758 0  0.2971740475496061 0.2592172353407536 0  1.72990325744076 0.2380068107952482 0  1.356580098625191 0.2120393231351682 0  2.034370752044885 0.2668681600792073 0  1.51768709249349 0.3426260931494756 0  1.561883724969884 0.1650446847858835 0  1.197344062229598 0.2523725417393646 0  1.804085235518364 0.3468178408964637 0  1.817887819205233 0.2589243285818559 0  1.905897727272727 0.3485060975609756 0  0.6719798073392919 0.2688965171178177 0  0 0.05125 0  0.653125 0.35875 0  0.6396896119294488 0.1627615407790282 0  0.4274150154087412 0.1242548552168279 0  1.192836486056382 0.3562350748565544 0  0.8279124365364005 0.183856489168822 0  1.097485222388854 0.2083571153401724 0  1.28257088594801 0.2944411014911587 0  1.474860187679412 0.2504218616229368 0  1.406767003493824 0.2829282258560709 0  0.446875 0.04619219810344041 0  0.515625 0.04585361801037557 0  0.592043440706648 0.05125 0  1.845656689180403 0.1998310418452388 0  2.144958525570388 0.2909790873294231 0  0.6171090763650112 0.2492366900333857 0  2.2 0.15375 0  0.5145586920831158 0.3648371739579888 0  1.57794966442982 0.3540357145964566 0  0.721875 0.3633107922168974 0  0.0496154796471391 0.333125 0  0.5843750000000001 0.3662560860076676 0  0.5810878747760798 0.1474002776121195 0  1.508991196088596 0.1421783375065625 0  0.8840670607017558 0.2640994375393898 0  0.09776612425612034 0.2204896805326566 0  1.50436820029908 0.06143401634903343 0  1.223857000523521 0.0823554862453532 0  1.153316824384777 0.1289850171317837 0  2.148922302309752 0.1258841779285271 0  0.309375 0.04312325590431198 0  1.621993280276081 0.2841214267927899 0  1.550118654119087 0.2461998729100966 0  1.327182649291491 0.1216967252533594 0  1.051977450479407 0.1221382572915816 0  1.753125 0.04556020050186112 0  1.271875 0.04556020050186116 0  0.9816084133102366 0.05126138213476004 0  1.039051841454368 0.0572224914831029 0  0.9719230514536006 0.3480477870845102 0  1.94956388244759 0.1180512551534177 0  1.949997712993411 0.04965831614304109 0  1.771961817615021 0.1530278789497521 0  1.909246823951428 0.2812757146784527 0  0.2459536687882397 0.04668633953831142 0  1.948575539857022 0.2445328248721197 0  1.697271520964565 0.1233917627620729 0  0.7964897648514618 0.1211426571931604 0  1.065625 0.3689344961371042 0  1.085849084308977 0.3170853572226867 0  0.4702981435440001 0.260434880697798 0  1.577403511714593 0.05463601888079143 0  0.05622663515370135 0.05493816910862376 0  0.3267207591099919 0.3566194660323104 0  0.9003051618565143 0.3564049499960621 0  1.751571320346033 0.3651102912045228 0  0.1583785085108421 0.2994699345738728 0  0.1455283439499995 0.3542795598723423 0  2.2 0.35875 0  0.2347662494194072 0.298325008655211 0  0.1527284455616188 0.1065771775690181 0  0.1382139529076665 0.05427454456341477 0  0.8749341636311069 0.05110114999892954 0  0.643661668713109 0.05693499781019222 0  1.466879772203159 0.3611261772912453 0  1.990280163552011 0.3564754268533217 0  1.17471064520912 0.2990917256188288 0  0.5202693090594349 0.206382495511728 0  0 0.25625 0  2.2 0.25625 0  2.2 0.05125 0  0 0.15375 0  1.853978576207987 0.35875 0  0.9787513713939683 0.1487523696999336 0  0.240625 0.3722153812029779 0  1.515638456102889 0.2882700110184686 0  0.09048297387599738 0.3637717362208066 0  2.150453692751374 0.2387066338105111 0  1.323782677156475 0.04897634338873398 0  0.8074131292871642 0.3624701995505916 0  1.409375 0.03715320121951221 0  1.406484531114799 0.1087852750766809 0  1.134375 0.03715320121951218 0  1.627401732573545 0.04552157221025036 0  0.1170173172005315 0.1427610859166811 0  2.045405893604797 0.1105340662939892 0  1.255408269734577 0.1577307500159216 0  2.028125 0.03707597992059326 0  0.4743610090857199 0.1421513964721819 0  0.9354010469015898 0.250631300585664 0  0.04420832937638274 0.128125 0  0.8922386349349938 0.0992956419364831 0  0.1197849154434487 0.2663398672460083 0  1.248258025468107 0.2565907092181813 0  0.3746885856929528 0.370723531618974 0  1.203125 0.0366132337404304 0  0.5724622277005015 0.2751253816079333 0  0.3365425205162783 0.08395777655057959 0  2.072662025974815 0.2975086504196739 0  0.4581080832182547 0.3648371739579888 0  0.3874522734668214 0.2295447548840689 0  0.7827853612484443 0.04106550386289586 0  1.887722846421017 0.1760882698830035 0  1.472640588990488 0.1118278026240017 0  1.865937103925594 0.2604137786483804 0  1.463913572748262 0.2030442564990043 0  1.376426316059077 0.3186741374914345 0  0.6641993820150034 0.3141688596240831 0  0.2943117490824315 0.2130987422685822 0  0.3478153998082709 0.1666571081082676 0  0.3427990510599805 0.2575950027870776 0  0.7997118993855807 0.2216171933356366 0  
[...]
<PointData  Scalars="f_37"> 
<DataArray  type="Float64"  Name="f_37"  format="ascii">7.3598650184584458e-01  7.5884709753120649e-01  6.2119464221390382e-11  -1.6363314083472834e-10  1.3230227282316419e-02  3.1814450640605280e-01  7.5656929044061058e-02  -7.2533723728212995e-01  -5.0400897850897264e-01  5.7077265140412148e-01  2.0836467858910916e+00  6.4026947852044547e-01  -6.8559306161971123e-01  -5.0622730767983937e-01  3.6158526633388599e-01  3.6126034226172926e-01  1.0035153940144446e+00  5.3779060843857585e-01  5.3410020012310833e-01  5.4815810666484033e-01  5.7211327923761801e-01  1.7693477444318703e-01  1.8165173114597261e-01  4.5176639559711734e-01  4.4610590311056375e-01  2.7260289564622503e-01  2.7077348998754042e-01  8.8679510215122839e-02  9.1833427637691020e-02  2.2599558202395859e-01  1.3592648658265510e-01  4.9678794574599444e-01  4.0626698594592192e-01  3.1592073152831412e-01  7.7178769721369377e-10  5.7927502733751113e-01  6.8173386659482402e-02  4.4015220441333727e-02  4.8473846724526981e-02  3.2337658404352047e-10  5.5984916429337250e-01  5.6496098639840020e-01  1.3678172895387997e-01  2.7085953994763257e-01  2.2333227983315143e-01  1.3682083213844684e-01  2.2149930937836201e-01  4.5131730018594768e-01  4.0835743860930485e-01  4.0624424802380571e-01  4.9489390765105246e-01  4.9343454729929359e-01  8.3105335426282056e-01  8.3858708225694756e-01  3.1586518912493844e-01  3.6112584260815250e-01  3.1516230625032299e-01  1.8100069913859335e-01  3.5224253558917340e-01  1.7227124000336289e-01  4.4258975938958922e-01  2.7968772776857942e-01  5.8261374603591565e-01  1.0082422713167384e-01  3.5764259092862995e-02  1.1321894154438339e-01  5.1893884916327260e-01  5.1897652507469993e-01  6.0360133773640978e-01  7.9025929501146885e-01  8.0909462891756834e-01  3.3528808845094918e-02  5.6275069671282996e-01  5.3442219239723054e-01  5.6256880758035688e-01  4.8354791272505715e-01  6.8322663836449998e-02  2.4338277482433235e-01  2.0758975938936655e-01  4.7398811674565294e-01  3.8343364607441699e-01  4.1882953736298711e-01  7.9262458213629303e-02  1.4855535352186955e-01  3.0318998451157669e-01  -3.2240882094643570e-10  3.1955912375947026e-01  2.1344485886848802e-01  3.9379191981100364e-01  2.4826555192480856e-01  3.3878517644335993e-01  9.9224066509682837e-02  7.5326958098701868e-01  1.4281279799580393e-01  6.8360556471228373e-01  4.6909295865436385e-01  3.7883560706219149e-01  5.8097801576374331e-01  2.5589962792332044e-01  4.9012047480799154e-01  7.6149649741203884e-01  2.3157765297443095e-02  2.7611216343698362e-02  2.9368133636150545e-01  4.2974500761342715e-01  1.9808298890887671e-01  6.4986332845357098e-01  1.2242896388492198e-01  1.5826130395074628e-01  3.3656918444176609e-01  5.3660796893442490e-02  5.5334611706638270e-01  5.9508269480657139e-01  5.1140197602306248e-01  4.1709723353764433e-01  1.1215924473866550e+00  5.5336597862124781e-01  9.6527944475618466e-01  5.5391402962990266e-01  2.4543200935751888e-01  2.7299849134378568e-01  2.9245126938729876e-01  4.4286247237685855e-01  4.3261051311227172e-01  1.5774603924004071e-01  3.4228115689383354e-01  3.6314934456118281e-01  3.8316015390350883e-01  2.9404899111878463e-01  1.7233224193657939e-01  5.2191412023327100e-01  3.2506894993646396e-01  3.8565376546468133e-01  4.7387254267146556e-01  2.0442939172568461e-01  4.7378083401299537e-01  4.9482183712218686e-01  5.7530014230920135e-01  3.9917311723121607e-01  8.3064127341503602e-01  7.3902860209226451e-01  4.1786987064664943e-01  5.4053284061760121e-01  5.4087989879431275e-01  2.0726395612525053e-01  1.8714749159686139e-01  1.2346920598129185e-01  1.1374159951341775e-01  2.4855366610980051e-01  2.4899579393356969e-01  1.1170377503622624e-01  2.5576412781627780e-02  4.7445181427048327e-01  4.2843458218243174e-01  5.5412890975344553e-01  5.6098475741155296e-01  5.5592666757381359e-01  6.6990509254414421e-01  8.4182375174319912e-01  3.3806910739854490e-01  5.1723168704555911e-01  5.1643749667403649e-01  3.8683931869067262e-01  1.6044663639615944e-01  6.7057983550451866e-02  6.4735268516224131e-02  2.8211031182562557e-01  3.5008974412998395e-01  1.6464124400151711e-01  2.1798260393772181e-02  1.7494592550773932e-01  2.9680621795511325e-01  4.5185112055991516e-01  2.6060309277181770e-01  6.1765133256472993e-01  5.7088505393972033e-01  5.8310576736064967e-01  2.3568342024810535e-02  4.6166846344139416e-02  6.1861437617625553e-02  8.4978284033371265e-02  1.0058606433864198e-01  4.3736175723012298e-02  3.0344353389364503e-01  1.9259599586056964e-01  4.6273416888273672e-01  4.9358108941467754e-01  5.1796832559343109e-01  1.5483354680851671e-01  2.7693783094374314e-01  5.4831523371636458e-02  2.2390227598740323e-01  2.0984286727997253e-01  3.2905890788401021e-01  1.3038605589039082e-01  1.2591170719281414e-01  9.7100453362923986e-02  5.0175184282603025e-01  7.5548076425096400e-01  5.0700459089477035e-01  5.1274438928927568e-01  5.8786352559640442e-01  3.3009838861158242e-01  4.5043272690095504e-01  3.6185299654335457e-01  3.0106109901578715e-01  2.3837029605382559e-01  2.6068490028069835e-01  5.6491341628938507e-01  5.4864895576644201e-01  5.2644472112912033e-01  1.1686535935387377e-01  1.8500678417827911e-02  5.2036514167271286e-01  7.7178769721369377e-10  5.4933468862816237e-01  2.0517351492556210e-01  4.8500465064940446e-01  7.2032291168314799e-01  5.2863944540700458e-01  5.3255117281339215e-01  2.2705853662746456e-01  4.3192984559222974e-01  1.3387349642686299e+00  2.2788731648435795e-01  3.2053280279672108e-01  3.4360674773113703e-01  1.7174443148768124e-02  5.4635069624234978e-01  1.9017488332495594e-01  2.1374712307996835e-01  2.8639204457776146e-01  3.7691834181717654e-01  1.4728963395238739e-01  3.0395504511515614e-01  4.0026110066638948e-01  3.8109976728921724e-01  4.0319731152003108e-01  8.2799486430979716e-02  8.2914179309288308e-02  1.4106512414881661e-01  9.5902119318659690e-02  5.3721787077103522e-01  8.3019420889466566e-02  1.6553885853299036e-01  4.6070632171481785e-01  3.7188777147936392e-01  3.6562809852624584e-01  5.7438156624411074e-01  2.0503980827466428e-01  7.0973825595484774e-01  5.6362648541471949e-01  4.2638273866924914e-01  1.4842078988907378e-01  6.0414953850358710e-01  7.7679626803262514e-01  -1.6363314083472834e-10  3.3162110863790945e-01  6.1335183833238083e-01  7.9048673391960467e-01  4.3491272123176050e-01  5.1024150882929864e-01  2.4107942066938079e-01  6.8555365930148521e-02  3.3647987779700494e-01  5.5626409643424368e-01  9.2058236496579948e-01  -1.2931758186952052e-10  5.1145028618058469e-11  9.3677492570645726e-01  1.1379212359312176e-01  4.0096924817033242e-01  5.8249777016849957e-01  2.2504538352012005e-01  8.1179488738164896e-01  1.6537540701465552e-02  2.8718738511789427e-01  4.5643283552480934e-01  2.5987214792553681e-01  2.6062013958263325e-01  3.5090238851270689e-01  1.8856221689499425e-01  9.8017688504413136e-01  5.1363105372589112e-02  3.1002961952588176e-01  5.7464590386134683e-02  5.7199321973421591e-01  4.1511313886955803e-01  8.7832277303072470e-01  4.2936803344938945e-01  9.1599776343178319e-01  3.1234864813928231e-01  5.6944272420654152e-01  3.2761237641147617e-01  5.3521352117590493e-01  5.6657465617773839e-01  4.2360168643735867e-02  5.6347431659634717e-01  6.2781790743594990e-01  4.6540976437939879e-01  1.0305953887448974e-01  2.3887935823624437e-01  1.1013635609148986e-01  2.4186823194881782e-01  2.7061203374363174e-01  5.0398228348266272e-01  6.5883588388900660e-01  6.6263328964220380e-01  6.2687297327976221e-01  4.5964325590410515e-01  1.5734491610444434e-01  1.4034036384210782e-01  3.2763202515133399e-02  4.8553772641485299e-01  4.7959056488773899e-01  3.9353897665409460e-01  3.8433470232159478e-01  3.6447632927968548e-01  2.6424854445369411e-01  2.1911005478059428e-01  5.7597319155251681e-02  1.9636679655931580e-01  5.1239573180464182e-01  4.8895675050036946e-01  1.2784061732924401e-01  1.0739070730147169e+00  6.9215690231214072e-02  1.2907987143881874e-02  3.6075482158865836e-02  4.1967894284178880e-02  8.6196371376003089e-01  4.8109748272728992e-01  1.9043617227432952e-01  1.3408227363808900e-01  6.4004980694773464e-02  7.3698918510615463e-01  2.6841196827745228e-01  3.2909698970876317e-01  2.3683233260890543e-01  1.8710629096284731e-01  2.1274316620144215e-01  4.4113696304989330e-01  1.6750653028527879e-01  1.6238781939112060e-01  3.9672140210407936e-01  3.9011843448687838e-01  1.3688025711144169e-02  1.4656116819357634e-02  7.4515080876818540e-01  5.0358464931638580e-01  4.7049745038999041e-01  4.1944104681440220e-01  4.3230995765152364e-01  1.8596313876114226e-01  1.3323486960081654e-01  1.0974258223675498e-01  2.1289737325437172e-01  8.3428610442794121e-02  6.0211216647965005e-01  1.4387344557450402e-01  1.2447476637119061e-01  3.6958748437057737e-01  1.5285893602822567e-01  1.7656649507823008e-01  4.0672560773312011e-01  5.7638624084786805e-01  7.5180110285842128e-01  4.7586294328612590e-02  4.1532651307050700e-01  2.1260449018106506e-01  3.1633434694568890e-01  3.5203553963342842e-02  2.3923304148499866e-01  6.6673262686955248e-01  3.7166739925812375e-01  5.8993020198422941e-01  2.0077170533565361e-01  4.6465978594380225e-01  5.8944810666891656e-01  5.7725266859257052e-01  4.7792896500316595e-01  3.5086703057137009e-01  4.4124016856962844e-01  3.5152747319175537e-01  3.4882306985245515e-01  1.4696244611778999e+00  1.3115213650305779e-02  2.8851432528012305e-01  6.9912492595418138e-02  4.4205799036062116e-01  1.0272736013376459e-01  1.1339290392836354e-01  9.9852965864057314e-02  8.9787404376410196e-02  2.2637638471604477e-01  1.6041549421794682e-01  1.7481721057141925e-01  1.7994525519167134e-01  7.5918906453725599e-01  4.3105513150761993e-01  5.2584353815418050e-01  7.0862918379332007e-01  5.4601375675695091e-02  2.5803084361477069e-01  4.9877271166728038e-01  3.9623686157062160e-01  8.0517087547329236e-01  5.3768504712460885e-01  4.1897340032404856e-01  1.3908645478508291e-01  4.8750054359458428e-01  4.1373560464582998e-01  4.9568351390724708e-01  2.3348763755169402e-01  9.9614906315880702e-01  3.4091513230295634e-01  4.4181763257316869e-01  5.5775795973981961e-02  2.4856277813160954e-01  5.5989329302280921e-01  7.1470081994261692e-01  2.2601113173800821e-01  5.6008621755927701e-01  5.2493118889595347e-01  5.6682134031245324e-01  5.5782651590613064e-01  5.4247174743384419e-01  5.7814384391601170e-01  5.6068865082172459e-01  5.4470560675949276e-01  4.3859371892486776e-01  8.5273587943112072e-01  2.2078129854465070e-01  1.4909985160184552e-01  3.0272853611087502e-01  1.5398972557836063e-01  2.9779015917473023e-01  2.7273274855922003e-01  2.7525614983431052e-01  3.6482920403424690e-01  1.6926233685311956e-01  2.8271791091450060e-01  7.4792902588275145e-02  9.3302133199751869e-01  5.7538613736764743e-01  3.3073514009851157e-01  3.1369183372623372e-01  7.6677323572728451e-01  5.1673548920996315e-01  1.9678012817653781e-01  1.7522695508793162e-01  6.1157876624509522e-01  1.8319902316221753e-01  1.6321616462842292e-01  7.6211519562831609e-01  5.6621845129110593e-01  1.8839558417467975e-01  1.9883658570061938e-01  2.2020670002743706e-01  5.0698262941105665e-01  1.2621375501075324e-01  4.7698472751971627e-01  4.5398423775013179e-02  5.7199565081911576e-02  2.9142469214846456e-01  3.1895115155764181e-01  3.0534981799757870e-02  2.7628530200988165e-02  1.2259360069218784e-02  1.4102287845804637e-01  2.1573028591875446e-01  3.8421530218408001e-01  3.8988973226627760e-01  3.9687694248881250e-01  5.0043072474479333e-01  2.6015189717980275e-01  3.6171225412444341e-01  4.1135020597444799e-01  4.2528984543588921e-01  4.4024171176570825e-01  4.4592370879455162e-01  1.1984928365531680e-02  2.6923651654000708e-02  3.8989740325145317e-01  8.0291275322709299e-02  3.0919109537433046e-02  4.7659823900546172e-01  3.2708466579012019e-01  4.1736859451086655e-01  1.1275814589691223e-01  1.3110397606054730e-01  5.3233703475407146e-01  5.6198490206340190e-01  5.6759031998514065e-01  4.1777132798080391e-01  7.0433151095818392e-01  4.0732310639646302e-01  4.5822427703112389e-01  3.4121892056412534e-01  3.5183928949466103e-01  2.9246581548951806e-01  2.8354848210625833e-01  2.7255774181680231e-01  3.4764872524026313e-01  2.5231944711683929e-01  2.6146876881828169e-02  3.2415043753173151e-01  4.6195863032604201e-01  5.3902838157552024e-01  6.5065741426286183e-01  6.0957608405217534e-01  5.6586057316033100e-01  5.6088582641604257e-01  5.5112932633121658e-01  5.4812364725301133e-01  5.2849822772181188e-01  5.1766237432875795e-01  1.1412555406034963e-01  3.1560308982409613e-01  4.0443187290616356e-01  5.5108925796591568e-01  5.4313025647361080e-01  5.3112567013442569e-01  2.5929968755348054e-01  1.6936643108278146e-01  6.8404699402223074e-02  5.6622201399069455e-02  7.9078632632816059e-02  3.0538528895957434e-01  3.5632843658787888e-01  3.3877807772895097e-01  5.5670630260873799e-01  2.8020618062907604e-01  3.6886173313057014e-01  1.2992017466028153e-02  3.7493500473371341e-02  3.5076878975225345e-01  2.6089988083734739e-01  2.3924734123288785e-01  1.5016955784813013e-01  3.7092895984518637e-01  1.4484277139742430e-01  4.8507559261229816e-01  2.6102742989348998e-01  4.8371949158221722e-01  1.0092467980710829e-02  4.1664395030438151e-01  5.6574651616269167e-01  5.6315077706664207e-01  5.6318403303222020e-01  8.8056896913438798e-01  6.0938327655740021e-01  5.8174864002404014e-01  8.7336734650916092e-01  5.0564815637305116e-01  4.6459015050250896e-01  5.4461630294719099e-01  5.3073880497357029e-01  5.4742451136735470e-01  5.2881480858432850e-01  5.4755268740860141e-01  5.1043137595497678e-01  3.9350191470450568e-01  3.2844755732184955e-01  1.9227473306378778e-01  8.1363103800068115e-02  3.0475573627637009e-01  5.7600616937293431e-02  7.9034581759011638e-02  1.5931085225393826e-01  6.2753763734717527e-02  4.6299982450718979e-01  2.4993516852244241e-01  3.3782023348522194e-01  5.8604302651396434e-01  2.8430063004546158e-01  2.9146172263917225e-01  3.3841089204441477e-01  2.1759562485777023e-01  2.3207569567250624e-01  9.7071416870412888e-02  5.6484661718068396e-01  2.4997042446875095e-01  2.5558236259430478e-01  1.6418099033418782e-01  1.0133471107027751e-01  1.6241812169011163e-01  4.3627754317691697e-01  5.0368472209176895e-01  1.2245921157077945e-01  1.7503440070090057e-01  2.9097927769980420e-01  9.0364152875180764e-02  2.3132531979398580e-01  4.5135818070476463e-01  3.7183356054168559e-01  4.0098833213777896e-01  9.7707162181185603e-01  4.3198171774029009e-01  1.9819006037427800e-01  5.1559403144620652e-01  4.6433860163916679e-02  3.7696596068263984e-02  3.8282829277313157e-01  4.9751385157534034e-01  2.7459108637183222e-01  1.0390260982663539e+00  3.1294358288620011e-01  9.0981744397952272e-02  9.4382014662246855e-02  8.4968742693267063e-01  3.8111825370108404e-02  6.6640471157532455e-01  5.1062115707203226e-01  4.9075337029319094e-01  4.2513661773464123e-01  5.3091514203135917e-02  1.3005958300081386e-01  3.7333471911769123e-01  1.2048972976275119e-01  1.6545045778688783e-01  1.1780382451531916e-01  7.9098698577864071e-02  1.0617562480478650e-02  5.7354176630805409e-01  4.0878720317565564e-01  2.0723326151763860e-01  4.5067697690089886e-01  4.1357003610125798e-01  2.0340978967826059e-01  1.8340474536031554e-01  6.3107361585079613e-01  9.7493066544861895e-02  6.5657875477108651e-01  2.1104243997357056e-01  1.5407556306415118e-01  4.9391304357506127e-01  7.6858251930832200e-01  5.2080491098043691e-01  2.0056609062765629e-01  3.5419846738915145e-01  2.1921123494093814e-01  5.2386866056102410e-01  2.8119751319878161e-01  4.0709028260159413e-01  4.9049281575213616e-01  5.2339431682853288e-01  1.0679907015152082e-01  4.9384294285909863e-01  8.5473922040305669e-02  3.1889487656107313e-01  4.2775235739008061e-01  2.0907254315195650e-01  1.2817517246471366e-01  3.7339835055774934e-01  3.2889545524601355e-01  1.3019497358427745e+00  1.4916305623631052e-01  5.1761650858071007e-01  3.0872685474816786e-01  3.2121616580079326e-01  3.3755068170989938e-01  1.7681941361251660e-01  2.3829479520801275e-01  1.3393758950461751e-01  1.1986328915644939e-01  3.5422310559408129e-02  2.2980414758247994e-01  7.2382441129007435e-02  7.5616819660819434e-01  7.3386235596852789e-01  2.1683940486515044e-01  9.9503870391564622e-02  2.9793145124829357e-01  8.4890017465015877e-01  5.6821606514007439e-01  2.1439505837895761e-01  6.0244026766356518e-01  6.3622077241779862e-01  5.7081484906345803e-01  7.2745723320984015e-02  5.8992302519824180e-01  2.8072163237928494e-01  5.4687636232898174e-01  3.0948921786157080e-01  1.1837667978122793e-01  4.2183757669237021e-01  9.9076375242073600e-01  5.7902232541264831e-01  5.6350770107159509e-01  3.3840059472130236e-02  4.7292008109032141e-01  1.2326317563174963e-01  3.2027980907138043e-01  1.8771666216148206e-01  1.0592658290073315e-01  -1.2931758186952052e-10  3.6203453737956415e-01  5.3118694932790134e-01  3.6183582489649618e-01  3.5226696788533618e-01  4.4272295310095022e-01  1.8157269218918509e-01  5.0515574885341497e-01  1.2211703339401195e-02  3.8749975317701424e-01  4.5045054740483655e-02  3.9124261902003693e-01  8.0337160381941519e-01  7.6163286088493021e-01  1.0031391938629587e-01  4.2737040543457344e-01  2.6526407200497348e-01  2.4603553768044847e-01  2.3910180816857710e-01  2.3210212916363060e-01  2.4950619966347462e-01  1.0866843710321866e-01  4.5649464928657640e-01  4.8432972347266673e-01  3.9383083792935547e-01  4.6764233972286012e-01  4.4281238458287225e-01  2.7007518284955145e-01  2.5657241675500636e-01  4.6732704659203811e-01  3.5911191020001809e-01  1.0698424442110527e-01  4.1511495726549180e-01  5.1050521907157975e-01  5.2420640287184783e-01  4.8665262938392601e-01  2.0914027761694474e-10  6.1851226889163691e-01  3.1128737965508113e-01  3.0247696190206558e-01  4.4779350939492085e-01  3.0183115637612412e-01  4.8021385107601922e-01  1.5503790597548700e-01  4.4186541963372838e-01  3.5647112110148044e-01  5.1925284553332796e-01  6.3589917764593207e-01  6.2403521299778969e-02  3.8057946042917035e-01  4.5075825917953694e-01  5.4301821362308267e-01  2.3634371234826562e-01  1.8447036006406256e-01  5.6494185057797619e-01  4.6982838385564613e-01  4.7148599714062750e-01  5.5643108385987672e-01  3.9589403508685964e-02  1.4226857774759619e-01  2.1408254988391908e-02  2.3312367846917169e-02  9.8060573169549570e-03  5.4348172828075236e-01  1.0812485926761256e-01  7.0026738196245969e-02  3.7751034164384639e-01  2.9542559087996179e-01  1.5305825820680327e-01  1.4052412219960797e-01  1.9982166872363180e-01  4.8743757970096768e-01  3.3432125663200957e-01  3.4008115887095869e-01  5.4154613877845537e-01  2.8313106375175195e-01  3.2238897225073548e-01  3.7531273202720183e-01  3.7179074592699896e-01  4.5608519780721796e-01  5.5551834573936887e-01  5.5865712746361706e-01  2.9967657732247016e-01  7.4909883182492676e-01  5.5688639433116460e-01  8.0501112751111725e-01  7.9684071955850244e-01  5.4843505173537865e-01  3.5257772653888514e-01  5.6104358306478064e-01  4.7702353958177973e-01  7.7178769721369377e-10  1.2864172217002632e+00  1.1092521788900092e+00  2.0549041668019238e-01  1.9549834281362657e-01  2.3529770038580330e-01  9.2495283691456057e-02  7.8134226633955761e-01  6.0608279475844340e-01  7.5185059733114934e-01  7.1438146786956891e-01  8.0046427461615166e-01  7.8269970579244497e-01  8.5657993604550883e-02  3.6666353159796466e-02  5.3392168057367628e-01  2.2065971901648646e-01  2.0909443976113687e-01  2.0552455833481259e-01  2.7982927773395783e-01  3.2933554311875601e-01  1.9147255878390509e-01  1.2651789058403870e-01  5.3380940476238647e-01  1.3854993564092666e-01  9.1510435113171334e-02  8.7002612286888992e-02  5.7941069369427345e-01  5.9723520662337126e-01  1.5565524891748259e-01  4.5994258920919001e-01  1.4526699527564882e-01  3.3039246145772916e-01  2.5296471398938664e-01  4.2298689712045096e-01  5.4393072085968497e-01  1.0651616573005027e-01  5.4956309517575985e-01  3.0761545624607711e-01  5.4545772859815589e-01  5.8232851551330300e-01  1.6774427067258035e-01  3.21802378