<?xml version="1.0"?>
<VTKFile type="UnstructuredGrid"  version="0.1"  >
<UnstructuredGrid>
<Piece  NumberOfPoints="2446" NumberOfCells="4585">
<Points>
<DataArray  type="Float64"  NumberOfComponents="3"  format="ascii">0 0.41 0  0 0 0  2.2 0 0  2.2 0.41 0  0.2404508497187474 0.2293892626146237 0  0.25 0.2 0  0.2404508497187474 0.1706107373853764 0  0.2154508497187474 0.1524471741852423 0  0.1845491502812526 0.1524471741852423 0  0.1595491502812526 0.1706107373853764 0  0.15 0.2 0  0.1595491502812526 0.2293892626146237 0  0.1845491502812527 0.2475528258147577 0  0.2154508497187474 0.2475528258147577 0  1.1 0 0  1.1 0.41 0  0 0.205 0  0.55 0 0  0.55 0.41 0  0.275 0 0  0.275 0.41 0  1.65 0.41 0  1.65 0 0  0.8250000000000001 0.41 0  0.8250000000000001 0 0  1.375 0 0  1.375 0.41 0  1.925 0 0  1.925 0.41 0  1.5125 0.205 0  1.7875 0.205 0  0.6875 0.205 0  0.9625000000000001 0.205 0  1.2375 0.205 0  2.2 0.205 0  0.4687002074688797 0.2068568464730291 0  1.99375 0.2152743902439024 0  2.0625 0 0  2.0625 0.41 0  2.2 0.3075 0  0.4125 0 0  0.4125 0.41 0  1.7875 0.41 0  1.375 0.1486128048780488 0  1.5125 0 0  1.7875 0 0  1.5125 0.41 0  0.8250000000000001 0.2613871951219511 0  0.9625000000000001 0.41 0  0.9625000000000001 0 0  0.6875 0.41 0  0.6875 0 0  0.1375 0 0  0.1375 0.41 0  1.2375 0 0  1.1 0.1486128048780487 0  1.2375 0.41 0  1.65 0.1486128048780487 0  1.126715909090909 0.2793064024390244 0  1.676715909090909 0.2793064024390244 0  0.8517159090909092 0.1306935975609756 0  1.348284090909091 0.2793064024390244 0  0.34375 0.3032389320646208 0  1.894702181800738 0.1282910975492754 0  2.092797818199262 0.1282910975492754 0  1.85625 0.3075 0  0.61875 0.3075 0  0.61875 0.1025 0  0.3648540804333487 0.1240075933101478 0  0 0.3075 0  0 0.1025 0  2.099172119769978 0.25625 0  0.48125 0.09238439620688085 0  0.5781001037344399 0.2059284232365146 0  0.48125 0.3196743479159776 0  0.7265881057911006 0.3055240343720796 0  1.99375 0.08395950269330846 0  1.459960956013612 0.3075 0  1.569025960719943 0.2986889805672169 0  0.75625 0.08213100772579164 0  1.03125 0.3278689922742084 0  0.923871252904788 0.3078247185783941 0  1.959375 0.3126371951219512 0  1.749222215368287 0.1025 0  1.275777784631713 0.1025 0  2.2 0.1025 0  1.225938124459196 0.3075 0  1.550777784631713 0.1025 0  1.000777784631713 0.1025 0  1.44375 0.07430640243902442 0  1.16875 0.07430640243902437 0  1.899250267340833 0.2229966846119207 0  0.1020898364287272 0.3140258291809757 0  1.766482954545455 0.2934032012195123 0  0.3405058858996321 0.2119987970531874 0  0.7710785630958338 0.1710968191298857 0  1.046078563095834 0.2389031808701144 0  0.2 0.3400647632937836 0  1.421109702350723 0.2261157654379721 0  0.2800464974185557 0.08982544815605742 0  0.098916018031319 0.09171660955420841 0  2.13125 0 0  2.118919042110979 0.3422084711244843 0  1.30625 0.41 0  0.89375 0 0  1.597888256393107 0.2173787389261347 0  0.20625 0 0  1.829299675393195 0.07400700849299596 0  1.71875 0.41 0  1.16875 0.41 0  2.038220665644273 0.332420740103091 0  0.34375 0 0  0.417496017710808 0.2696595573092803 0  0.2 0.07687845740457822 0  0.9295982307099278 0.1343158415898188 0  0.07390688010811153 0.1697064032433452 0  0.5238366813727013 0.2578302467013575 0  0.05452951551825875 0.25625 0  0.5229630068078351 0.1548816096928243 0  1.452769549894695 0.1548122580621249 0  1.369219062229598 0.07430640243902442 0  1.30625 0 0  0.8504409521244898 0.3356935975609756 0  0.8821881244591965 0.205 0  1.720943423819132 0.1714577452753128 0  1.157188124459196 0.205 0  1.094219062229598 0.07430640243902437 0  1.03125 0 0  1.304056576180868 0.1714577452753128 0  1.67579304192913 0.07430640243902437 0  0.2751941921308361 0.3346083473122598 0  1.209670467133757 0.1362100266964769 0  1.025335513626278 0.1700681449722324 0  0.7562500000000001 0.41 0  1.58125 0 0  0.7567170593862014 0.2409196493502535 0  0.6926714215682891 0.1272249611432207 0  0.4139715849905988 0.3397932387114203 0  0.9840787304190477 0.2717749043358119 0  0.06875000000000001 0.41 0  0 0.35875 0  0.9281250000000001 0.06276726142697993 0  0.5507396469029935 0.3219409231578227 0  0.5504468037989405 0.09136885600634273 0  1.58125 0.41 0  1.631724228912893 0.3381867502687533 0  1.825608881788174 0.14499488549201 0  1.85625 0 0  1.44375 0 0  1.44375 0.41 0  1.85625 0.41 0  2.13125 0.41 0  0.7562500000000001 0 0  0.89375 0.41 0  0.4812500000000001 0 0  0.34375 0.41 0  0.4812500000000001 0.41 0  0.20625 0.41 0  0.06875000000000001 0 0  1.16875 0 0  0.61875 0 0  0.61875 0.41 0  1.03125 0.41 0  1.71875 0 0  1.99375 0 0  1.99375 0.41 0  1.340625 0.3489494290853124 0  1.134375 0.3489494290853123 0  1.700180620188976 0.3438659752031281 0  2.135782184673599 0.07126652247502523 0  1.668441847249787 0.2129203728327609 0  1.295782514339747 0.2378437748815763 0  0.8233075729931248 0.06842334294821524 0  1.409375 0.3520314716057996 0  0.403505597322782 0.182067236678212 0  0.378125 0.05794951541303489 0  0.3043468223249023 0.1518321115979534 0  2.129248544730567 0.1906135162504124 0  2.060771381434487 0.1989445750470348 0  2.013252586573865 0.1496169464686054 0  1.942766402200229 0.1734448904596831 0  1.895522487186454 0.06076163953489683 0  2.069553871656643 0.06605731020975725 0  1.274680914880868 0.3520219391081363 0  1.614713220494657 0.09473434380863296 0  0.7899021319497519 0.3149123934144827 0  0.69518737419149 0.0634051089053758 0  0.2971740475496061 0.2592172353407536 0  1.72990325744076 0.2380068107952482 0  1.356580098625191 0.2120393231351682 0  2.034370752044885 0.2668681600792073 0  1.51768709249349 0.3426260931494756 0  1.561883724969884 0.1650446847858835 0  1.197344062229598 0.2523725417393646 0  1.804085235518364 0.3468178408964637 0  1.817887819205233 0.2589243285818559 0  1.905897727272727 0.3485060975609756 0  0.6719798073392919 0.2688965171178177 0  0 0.05125 0  0.653125 0.35875 0  0.6396896119294488 0.1627615407790282 0  0.4274150154087412 0.1242548552168279 0  1.192836486056382 0.3562350748565544 0  0.8279124365364005 0.183856489168822 0  1.097485222388854 0.2083571153401724 0  1.28257088594801 0.2944411014911587 0  1.474860187679412 0.2504218616229368 0  1.406767003493824 0.2829282258560709 0  0.446875 0.04619219810344041 0  0.515625 0.04585361801037557 0  0.592043440706648 0.05125 0  1.845656689180403 0.1998310418452388 0  2.144958525570388 0.2909790873294231 0  0.6171090763650112 0.2492366900333857 0  2.2 0.15375 0  0.5145586920831158 0.3648371739579888 0  1.57794966442982 0.3540357145964566 0  0.721875 0.3633107922168974 0  0.0496154796471391 0.333125 0  0.5843750000000001 0.3662560860076676 0  0.5810878747760798 0.1474002776121195 0  1.508991196088596 0.1421783375065625 0  0.8840670607017558 0.2640994375393898 0  0.09776612425612034 0.2204896805326566 0  1.50436820029908 0.06143401634903343 0  1.223857000523521 0.0823554862453532 0  1.153316824384777 0.1289850171317837 0  2.148922302309752 0.1258841779285271 0  0.309375 0.04312325590431198 0  1.621993280276081 0.2841214267927899 0  1.550118654119087 0.2461998729100966 0  1.327182649291491 0.1216967252533594 0  1.051977450479407 0.1221382572915816 0  1.753125 0.04556020050186112 0  1.271875 0.04556020050186116 0  0.9816084133102366 0.05126138213476004 0  1.039051841454368 0.0572224914831029 0  0.9719230514536006 0.3480477870845102 0  1.94956388244759 0.1180512551534177 0  1.949997712993411 0.04965831614304109 0  1.771961817615021 0.1530278789497521 0  1.909246823951428 0.2812757146784527 0  0.2459536687882397 0.04668633953831142 0  1.948575539857022 0.2445328248721197 0  1.697271520964565 0.1233917627620729 0  0.7964897648514618 0.1211426571931604 0  1.065625 0.3689344961371042 0  1.085849084308977 0.3170853572226867 0  0.4702981435440001 0.260434880697798 0  1.577403511714593 0.05463601888079143 0  0.05622663515370135 0.05493816910862376 0  0.3267207591099919 0.3566194660323104 0  0.9003051618565143 0.3564049499960621 0  1.751571320346033 0.3651102912045228 0  0.1583785085108421 0.2994699345738728 0  0.1455283439499995 0.3542795598723423 0  2.2 0.35875 0  0.2347662494194072 0.298325008655211 0  0.1527284455616188 0.1065771775690181 0  0.1382139529076665 0.05427454456341477 0  0.8749341636311069 0.05110114999892954 0  0.643661668713109 0.05693499781019222 0  1.466879772203159 0.3611261772912453 0  1.990280163552011 0.3564754268533217 0  1.17471064520912 0.2990917256188288 0  0.5202693090594349 0.206382495511728 0  0 0.25625 0  2.2 0.25625 0  2.2 0.05125 0  0 0.15375 0  1.853978576207987 0.35875 0  0.9787513713939683 0.1487523696999336 0  0.240625 0.3722153812029779 0  1.515638456102889 0.2882700110184686 0  0.09048297387599738 0.3637717362208066 0  2.150453692751374 0.2387066338105111 0  1.323782677156475 0.04897634338873398 0  0.8074131292871642 0.3624701995505916 0  1.409375 0.03715320121951221 0  1.406484531114799 0.1087852750766809 0  1.134375 0.03715320121951218 0  1.627401732573545 0.04552157221025036 0  0.1170173172005315 0.1427610859166811 0  2.045405893604797 0.1105340662939892 0  1.255408269734577 0.1577307500159216 0  2.028125 0.03707597992059326 0  0.4743610090857199 0.1421513964721819 0  0.9354010469015898 0.250631300585664 0  0.04420832937638274 0.128125 0  0.8922386349349938 0.0992956419364831 0  0.1197849154434487 0.2663398672460083 0  1.248258025468107 0.2565907092181813 0  0.3746885856929528 0.370723531618974 0  1.203125 0.0366132337404304 0  0.5724622277005015 0.2751253816079333 0  0.3365425205162783 0.08395777655057959 0  2.072662025974815 0.2975086504196739 0  0.4581080832182547 0.3648371739579888 0  0.3874522734668214 0.2295447548840689 0  0.7827853612484443 0.04106550386289586 0  1.887722846421017 0.1760882698830035 0  1.472640588990488 0.1118278026240017 0  1.865937103925594 0.2604137786483804 0  1.463913572748262 0.2030442564990043 0  1.376426316059077 0.3186741374914345 0  0.6641993820150034 0.3141688596240831 0  0.2943117490824315 0.2130987422685822 0  0.3478153998082709 0.1666571081082676 0  0.3427990510599805 0.2575950027870776 0  0.7997118993855807 0.2216171933356366 0  
[...]
<PointData  Scalars="f_37"> 
<DataArray  type="Float64"  Name="f_37"  format="ascii">9.0872469860541327e-01  9.2881930214133512e-01  1.2889324873085472e-09  8.8476552070558872e-10  2.2709529696295908e-01  6.4168214530295253e-01  3.1267429367461264e-01  -7.2941851514995815e-01  -3.3487591026230423e-01  7.7221239077387394e-01  2.0185857678716541e+00  8.1220574250950583e-01  -4.4959763262805369e-01  -4.8865779943553794e-01  4.4617083476135383e-01  4.4534600802399343e-01  1.1423732552677659e+00  6.5785715755442864e-01  6.5640487368451639e-01  6.8686761905349603e-01  7.1832821136844793e-01  2.1194471241828661e-01  2.1760082533659114e-01  5.5149517603783382e-01  5.4094729577672795e-01  3.3700149313305672e-01  3.3103415249788742e-01  1.1454399397255771e-01  1.1007898239793223e-01  2.7623794071513413e-01  1.6632542243196619e-01  6.0638275224931526e-01  4.9621910415894444e-01  3.8589908936430006e-01  2.0052016866973643e-09  7.0226605093968020e-01  8.3567567789070679e-02  5.7245400543936523e-02  5.6264404621049736e-02  1.1882296761574710e-09  6.9684604166830622e-01  6.9971605670722425e-01  1.6371156076974064e-01  3.3083707500554521e-01  2.6823643144694137e-01  1.6552969255265026e-01  2.6468672235205293e-01  5.5110384738703055e-01  5.0254724970002174e-01  4.9857253346866665e-01  6.0524321628963607e-01  6.0869011372806958e-01  9.4349328752891470e-01  9.6899642716842072e-01  3.8573288866630140e-01  4.4118867567388625e-01  3.8654225643447970e-01  2.2130270525604553e-01  4.3029290448107993e-01  2.1068146189009704e-01  5.4050709036184452e-01  3.4170001987033960e-01  7.2622363644867882e-01  1.2359380170056131e-01  4.4219010858439850e-02  1.3861573104318239e-01  6.3355816418495392e-01  6.3366956243532102e-01  7.3897169076445079e-01  9.0571095165627602e-01  9.2116277759224718e-01  4.1154992206515958e-02  6.8787183498639159e-01  6.5151921588345829e-01  6.8748712783317145e-01  5.9031947811485497e-01  8.3901386790617330e-02  2.9757287564786344e-01  2.5390025121110732e-01  5.7911376091041389e-01  4.6846431939317013e-01  5.1152988585095627e-01  9.6738225827103994e-02  1.8170526510099413e-01  3.7028515109654764e-01  1.4967006539696677e-09  3.9027687394422211e-01  2.6089321254256337e-01  4.8106381110111912e-01  3.0325915792867891e-01  4.1433638825281921e-01  1.2149051225825837e-01  9.7874731033659457e-01  1.7468319728232817e-01  8.0452435531230981e-01  5.7274827294401343e-01  4.6272806835690428e-01  7.1746266282517279e-01  3.1270167248083963e-01  6.6494954585096488e-01  9.8972318885238797e-01  2.9869835194450495e-02  3.4216493786751442e-02  3.5856532678111752e-01  5.2490944897442915e-01  2.4219158128228033e-01  7.7791064462167137e-01  1.5044045618787713e-01  1.9501341897063837e-01  4.1274562372847595e-01  6.5656754947371845e-02  6.9987976990836698e-01  7.2266175440780345e-01  6.5275062156175934e-01  5.0947625664155638e-01  1.2702972136648498e+00  6.7415330899706838e-01  1.1033261355363280e+00  6.7475389444558642e-01  2.9986306625036907e-01  3.3435617908949528e-01  3.5614308408823508e-01  5.4071774896784830e-01  5.2832513322124519e-01  1.9294801868944225e-01  4.1812928343199385e-01  4.4370672194819716e-01  4.7413031720512105e-01  3.5916696100625140e-01  2.1057012189037058e-01  6.8284731974381030e-01  3.9713823262041681e-01  4.7109711105111340e-01  5.7618096894892401e-01  2.4328191284657172e-01  5.7844704249281242e-01  6.0411053563761230e-01  7.0723848716622839e-01  4.8754043444623496e-01  1.0523749634216006e+00  8.7068231681556607e-01  5.1079022249836969e-01  6.6016013712524646e-01  6.6067304550616801e-01  2.4866161674376652e-01  2.2879675096802879e-01  1.5120407943045788e-01  1.3943730227140297e-01  3.0845946993181406e-01  3.1023098999039800e-01  1.3830551042840047e-01  2.8209053702064037e-02  5.8076288677360399e-01  5.2494110319555498e-01  6.8336571047888772e-01  7.0216475407013734e-01  6.8230218053272784e-01  7.9747701360683676e-01  1.0613569755172396e+00  4.1524019071432638e-01  6.3264003254663526e-01  6.3430702246188986e-01  4.6969717335171568e-01  1.9168044947834764e-01  8.1178061063335111e-02  8.1657716878526854e-02  3.4477541422183372e-01  4.2784061506341114e-01  2.0160129994768794e-01  2.7824792105764325e-02  2.1394564098266272e-01  3.6255481169139070e-01  5.5145146971386894e-01  3.1989024259185284e-01  7.4129167303679788e-01  7.0883510401573946e-01  7.8143302720705710e-01  2.9018366351331551e-02  5.6710704318864345e-02  7.6000037668705028e-02  1.0417105873866919e-01  1.2309572978207635e-01  5.4161569930231079e-02  3.7039496520722570e-01  2.3548016986836209e-01  5.6505719393198339e-01  6.0286981931765438e-01  7.4335974729059773e-01  1.8938900637543218e-01  3.3831981810095035e-01  6.7185596769950839e-02  2.7367623254957135e-01  2.5652119967301229e-01  4.0192663702277187e-01  1.5934477727857951e-01  1.5407480817843255e-01  1.1873119888442089e-01  6.1245538760557083e-01  8.8137831265428668e-01  6.1924855951046898e-01  6.2573797343799809e-01  7.1520384826516448e-01  4.0288597422062111e-01  5.5002951564968849e-01  4.4204487921234892e-01  3.6770127298644856e-01  2.9136197893714311e-01  3.1857982996348633e-01  6.9406724508817197e-01  6.7235381159996910e-01  6.4337806814774867e-01  1.4306531095747452e-01  2.2726773602598494e-02  6.3489961234336656e-01  2.0052016866973643e-09  6.7217528675554961e-01  2.5055578511343790e-01  5.9274973415783472e-01  8.4512769389634590e-01  6.4549940651629567e-01  6.4965846016084206e-01  2.7747466891717171e-01  5.2748703854265411e-01  1.4524986688603072e+00  2.7865193006086497e-01  3.9149504824531395e-01  4.1984357048760118e-01  2.1310275289324911e-02  6.9821463092098290e-01  2.3254654282856266e-01  2.6133697120717753e-01  3.4972717532158470e-01  4.6047617949642194e-01  1.8033140826724914e-01  3.7136794760790853e-01  4.8901740932410770e-01  4.6531053853713017e-01  4.9248730201880725e-01  1.0157501064633664e-01  1.0220818008412670e-01  1.7261887758663780e-01  1.1731586216738490e-01  6.8518935468886766e-01  1.0162793555271409e-01  2.0241099236495175e-01  5.6250467642123525e-01  4.5404150591624715e-01  4.4676019112833137e-01  6.9812661312912694e-01  2.5084787185124213e-01  9.3595910614753619e-01  7.0932432420279534e-01  5.2036960198374071e-01  1.8139378682292701e-01  7.5565832155624191e-01  9.0723366283444096e-01  8.8476552070558872e-10  5.1035331135145634e-01  7.6595545621158168e-01  9.1983095622294586e-01  5.3195249623752705e-01  6.2343711044082217e-01  2.9491995718090075e-01  8.3662695333001288e-02  4.1096106685645228e-01  6.7692209823716964e-01  1.0502146752749746e+00  7.0961748231219834e-10  1.5128421244419159e-09  1.0668028303669106e+00  1.3918921514276084e-01  4.8980277470466710e-01  7.2269863479758434e-01  2.7521386678142512e-01  1.0070335845583753e+00  2.0321342452973550e-02  3.5067035610460584e-01  5.5750444759088569e-01  3.1667676957005536e-01  3.1831180165124023e-01  4.2964296650896194e-01  2.3047680723904079e-01  1.1254879550483488e+00  6.3324735601746424e-02  3.7869728459483709e-01  7.0818511168761575e-02  6.9591141841928850e-01  5.0699368701979153e-01  1.0037419739641340e+00  5.2445272827703371e-01  1.0683076982346760e+00  3.8151265499968096e-01  7.0846310199114981e-01  4.0026517994243399e-01  6.5290853354563472e-01  7.1499599054096707e-01  5.1888070796185203e-02  6.9195698117239590e-01  7.5219651521732733e-01  5.6949367756401092e-01  1.2624595743864445e-01  2.9180044170755398e-01  1.3478717723820263e-01  2.9557945402729946e-01  3.3068012369915917e-01  6.1508510612826273e-01  8.7964319435020089e-01  7.8746387484847524e-01  7.6976442347544138e-01  5.6124562253896815e-01  1.9247381674074859e-01  1.7169802220016669e-01  4.0376050820978192e-02  5.9275121506075812e-01  5.8554663360711523e-01  4.8067675470105165e-01  4.6941580062468691e-01  4.4523224669307915e-01  3.2282337029809599e-01  5.2710683334509512e-01  6.8459025174659127e-02  2.4008294850915818e-01  6.2524252313837059e-01  5.9688315321470931e-01  1.5639358763815323e-01  1.2192495610076435e+00  8.4732536756828888e-02  1.6099743678710914e-02  4.4764066968303692e-02  5.1234766244150541e-02  1.0270149790331318e+00  5.8812183267466533e-01  2.3341308736567434e-01  1.6419181411143449e-01  7.8299210863837440e-02  8.5441754007552217e-01  3.2796623521010304e-01  4.0203035935772191e-01  2.9020782950440471e-01  2.2876819187085981e-01  2.6144515768357296e-01  5.3886127084455293e-01  2.1131401705410158e-01  1.9712447446611972e-01  4.8794091479002188e-01  4.7669727734952211e-01  2.0108514063144612e-02  1.8289359592208090e-02  9.8078323663908606e-01  6.1484408551579683e-01  5.7370622867872401e-01  5.1229551801381290e-01  5.2797669151023074e-01  2.2740366775187987e-01  1.6270745774287190e-01  1.3455847050799560e-01  2.7088000694805370e-01  1.0121837988753235e-01  7.2591322560259952e-01  3.3852681462319723e-01  1.5439252105010801e-01  4.5216158188281569e-01  1.8696091027551318e-01  2.1628310934192449e-01  4.9692656594882445e-01  7.0786571584314595e-01  8.5916721078192815e-01  5.8568455291475592e-02  5.0852369367943917e-01  2.5990135329772690e-01  3.8572011091384284e-01  4.3357080146837076e-02  2.9159019273289050e-01  7.9044162339359347e-01  4.5403426796640822e-01  7.1384778448161501e-01  2.4549823090639813e-01  5.6735968634439027e-01  7.2297843330409284e-01  7.0497015776536520e-01  5.8348850880510927e-01  4.2879259831503874e-01  5.3883268003883023e-01  4.2940824010192413e-01  4.2615538045953705e-01  1.5369827451166416e+00  1.6194663748714720e-02  3.5237010051501849e-01  8.5232298045781626e-02  5.3983438773343795e-01  1.3372087247291722e-01  1.3935065322249160e-01  1.1762662877721335e-01  1.0989293806099619e-01  2.7658038242677185e-01  1.9604614588140890e-01  2.1342401976584441e-01  2.2001561067341130e-01  9.8957331449215746e-01  5.2638776327757597e-01  6.9763489890086439e-01  8.7681903897588087e-01  6.6834853448416040e-02  3.1518209148515502e-01  6.0882523903662977e-01  4.8391878242736058e-01  9.4906668425061602e-01  6.5749105888991211e-01  5.7205681228762262e-01  1.7048588088457289e-01  5.9521190480876840e-01  5.0507110017905910e-01  6.0514928047779415e-01  2.8534177990275411e-01  1.1328803952018331e+00  4.1641859596538755e-01  5.3954390706186239e-01  6.8479378321524967e-02  3.0383583909224038e-01  7.0759670858102242e-01  8.3742672614374347e-01  2.7631203417784717e-01  7.0242935077219160e-01  6.4034134756816341e-01  6.8891340251591360e-01  6.8032366953591794e-01  6.6115161759725027e-01  7.3483348667751069e-01  6.8347643773239808e-01  6.6368306626980800e-01  5.3542741677229833e-01  9.7512283160760094e-01  2.7088044257389582e-01  1.8239480378762887e-01  3.6978318477882877e-01  1.8836407706988742e-01  3.6369963072204509e-01  3.3309915902603809e-01  3.3647238245652045e-01  4.4571320779298196e-01  2.0698607878595468e-01  3.4531964796600834e-01  9.1785464475632753e-02  1.0965254362011696e+00  7.1590748819500516e-01  4.0406807841758929e-01  3.8316420856555505e-01  9.0220554195531255e-01  6.7045520177800622e-01  2.4054064216505586e-01  2.1429395807744303e-01  7.4317142702045780e-01  3.4418956825825886e-01  4.9543249250384991e-01  8.7043236033303639e-01  6.8842013248804790e-01  2.3040016633680993e-01  2.4310116897043649e-01  2.7211616169940622e-01  6.1889574829530891e-01  1.5380810531874006e-01  5.8236193669072067e-01  5.5697272221504973e-02  7.0129472811222185e-02  3.5561981846724577e-01  7.2896386870887697e-01  3.7530704060805324e-02  3.3945523732122021e-02  1.5087923868926210e-02  1.7250723855983627e-01  2.6426516729269195e-01  4.6932052364095844e-01  4.7628147367167273e-01  4.8476591949572595e-01  6.1124869908435997e-01  3.1828226862904180e-01  4.4239066145413952e-01  5.0212140391123394e-01  5.1954998420811760e-01  5.4399104863823544e-01  5.4543084873313619e-01  1.5131554074863414e-02  3.3460211613092143e-02  4.7637109154510043e-01  9.8372697685497210e-02  3.9387128511832986e-02  5.8187060630060172e-01  3.9954575053259134e-01  5.0975355838946290e-01  1.3816675734142864e-01  1.6045882725688995e-01  6.4917204920936111e-01  7.0690158586488250e-01  7.0060640740153124e-01  5.1030300445140919e-01  8.3128608462382636e-01  4.9753348595086855e-01  5.5950906014122104e-01  4.1579899591186242e-01  4.3010772219355770e-01  3.5718658957957161e-01  3.5494685404532900e-01  3.3601489610797985e-01  4.2471318825805793e-01  3.0828082957681541e-01  3.2306870362066607e-02  3.9149021226525971e-01  5.6335618471172644e-01  6.5899494637836731e-01  7.6952448091748005e-01  7.3703059461363563e-01  7.0211428012299903e-01  6.9286635847323719e-01  6.7355136391139714e-01  6.6868328665082477e-01  6.4546390568064627e-01  6.3245535783877094e-01  1.3976102546609706e-01  3.8543159578476616e-01  4.9396319972784197e-01  6.7370907954833625e-01  6.6254999493106270e-01  6.4834772229653748e-01  3.1690609648767987e-01  2.0843708959272686e-01  8.3926543385010793e-02  6.9528058811568816e-02  9.6714447815698004e-02  3.7571198690062196e-01  4.3610961736309661e-01  4.1552452688632213e-01  6.8342289367053966e-01  3.4157599224671847e-01  4.4099811914886666e-01  1.9171723985765003e-02  4.5023405962998440e-02  4.2905524783405136e-01  3.1918005669722860e-01  2.8934432043620584e-01  1.8366169232119345e-01  4.5351819296138424e-01  1.8122960715844921e-01  5.9164249871562102e-01  3.2057758624173638e-01  5.8076399229416231e-01  1.5823491662742807e-02  5.0417722109614238e-01  7.0478943193421750e-01  6.9002999785658015e-01  6.9320059339545759e-01  1.0358681025232090e+00  7.4466184759568232e-01  7.1835660439276527e-01  1.0277785870490768e+00  6.1389966214818903e-01  5.6645421427113174e-01  6.9355310124352254e-01  6.4169436675020086e-01  6.6611467227715582e-01  6.4905672047471830e-01  6.7368566041151157e-01  6.2318605799253046e-01  4.8143600555666055e-01  4.0194118465766726e-01  2.4003274375931891e-01  9.0341793557827801e-02  3.7468717639285581e-01  7.0385999667114188e-02  9.5555014746060471e-02  1.9511338316653001e-01  7.7210899981881201e-02  5.6481694881184330e-01  3.0524371360060515e-01  4.1272352570102139e-01  7.2118896837063073e-01  3.4731944973271295e-01  3.5603559842235566e-01  4.1343794663706190e-01  2.6620254477004540e-01  2.8378396160893804e-01  1.2075234221561236e-01  7.3416495219595046e-01  3.0611984994667929e-01  3.1261142255728547e-01  2.0080174189675273e-01  1.2387740405701690e-01  1.9865787687123826e-01  6.0736771028501702e-01  6.1473439132520458e-01  1.4998352356436212e-01  2.1405236459044027e-01  3.5544344760380797e-01  1.1037459496421571e-01  2.8185623759869638e-01  5.5123156472588175e-01  4.5416808598921327e-01  4.9055045273581693e-01  1.1139424441786669e+00  6.2219206698806717e-01  2.4367563616994797e-01  6.2925528542022235e-01  5.8525668085474290e-02  4.6788059671513768e-02  4.6773541679274927e-01  6.0774404910242719e-01  3.3542844771077152e-01  1.1886323593270762e+00  3.8213216082623142e-01  1.1145249114156462e-01  1.1567846462844655e-01  9.8735703944027420e-01  4.6837296820394433e-02  7.9167302503033210e-01  6.2327999194171335e-01  5.9909696533982471e-01  5.1921950707644016e-01  6.4954096837823216e-02  1.5967014729226334e-01  4.5604689121923220e-01  1.4741985634286842e-01  2.0240642064018347e-01  1.4418172700218099e-01  9.7054430907445879e-02  1.3046844454426956e-02  7.0125155552830898e-01  4.9931491006054279e-01  2.5336076229449661e-01  5.5035058240739643e-01  5.0536027227021352e-01  2.4882159499034720e-01  2.2427263788698670e-01  8.0621654488226324e-01  1.1881553699517956e-01  8.1087119647770189e-01  2.6101722078642620e-01  5.8654798729647573e-01  6.9711150966730395e-01  8.8319238002482503e-01  6.3558998608673700e-01  2.4340591350835153e-01  4.3275966665001431e-01  2.6795032685711861e-01  6.8096154964520783e-01  3.4325633786803994e-01  4.9730742860335786e-01  5.9972298646090438e-01  6.3843664455828375e-01  1.3161432293259356e-01  6.0280188057385675e-01  1.0392294600897507e-01  3.8955082848429962e-01  5.2245387375622576e-01  2.5707793554125252e-01  1.5685132823642123e-01  4.5601697597602303e-01  4.0163480979924038e-01  1.3827162517017220e+00  1.8246735185228155e-01  6.3191576127948890e-01  3.7710072276342277e-01  3.9232714308672523e-01  4.1232478673788298e-01  2.1621888162203023e-01  2.9074848977807366e-01  1.6386534186305304e-01  1.4667701593654262e-01  4.3542754849877310e-02  2.8018763532148439e-01  8.6897837640635259e-02  9.0944550996606699e-01  8.9549703003772929e-01  2.6505356207347541e-01  1.2224418026830065e-01  3.6380501330378989e-01  1.0419378198095854e+00  6.9621397191593259e-01  2.6268107585615819e-01  7.3547264475741136e-01  7.6782733948673954e-01  6.9587502733682494e-01  8.9341341388954151e-02  7.1450103446671653e-01  3.4412145866010924e-01  7.0257720530869527e-01  3.7798955212325014e-01  1.4360874239695826e-01  5.1438703200178870e-01  1.1290530249753687e+00  7.3652682771064648e-01  7.0373704681048777e-01  4.2317401330062093e-02  5.7742005219511394e-01  1.5112790959778152e-01  3.9121173771603085e-01  2.2950591428587630e-01  1.2962988887907612e-01  7.0961748231219834e-10  4.4226483354591117e-01  6.4892160890667105e-01  4.4203767093621427e-01  4.3033677747757465e-01  5.4065402991012723e-01  2.2204110781692835e-01  6.1650169438081426e-01  1.5552503796563312e-02  4.7329277323999519e-01  5.5226299158906589e-02  4.7815941364140707e-01  9.6764145221070885e-01  9.1184967675090367e-01  1.2277679789573280e-01  5.2192118260317288e-01  3.2410136538192780e-01  3.0069014638257896e-01  2.9235797763785637e-01  2.8370530936158467e-01  3.0510315677625860e-01  1.3334755357055372e-01  5.5507575034088075e-01  5.9119865032405494e-01  4.8136314196705099e-01  5.7097670091329722e-01  5.4075227181800156e-01  3.3002683903074054e-01  3.1356724661361679e-01  5.7045905072779424e-01  4.3786693996549791e-01  1.3099811679459925e-01  5.0700474583874255e-01  6.2302692223305978e-01  6.3971337531851780e-01  5.9414125061047518e-01  2.7047524044193189e-09  7.5431023081224169e-01  3.8018672236042894e-01  3.6945787754931625e-01  5.4707124404815377e-01  3.6664659368615699e-01  5.8400543094542445e-01  1.8964229937496901e-01  5.3960757801813863e-01  4.3566399639027054e-01  6.3410041637596459e-01  7.6079371764758363e-01  7.6552076086927962e-02  4.6429387899713204e-01  5.5042519985319061e-01  6.6389943495176917e-01  2.8877447281087959e-01  2.2556175033788367e-01  6.9262483152467869e-01  5.7365834700893381e-01  5.7561449394484965e-01  6.8143390163965134e-01  2.2885710821347183e-01  1.7265405074475895e-01  2.6317867921797786e-02  2.8639757231192532e-02  1.2069936441513222e-02  6.6295324258692112e-01  1.3235894516417079e-01  8.5499356163103640e-02  4.6117203893744030e-01  3.5910893163798963e-01  1.8575779941187062e-01  1.7227344805193787e-01  2.4428012546418404e-01  5.9504214616302298e-01  4.0848055914063686e-01  4.1556451958395074e-01  6.9925908027524641e-01  3.4585924900532289e-01  3.9372553718553244e-01  4.5817974394774774e-01  4.5418041451743252e-01  5.5695783632609686e-01  6.8156215687838684e-01  6.8447170906213128e-01  3.6607095821783175e-01  9.9402903448767610e-01  6.9752463331655334e-01  1.0367365495933325e+00  9.1785405602872183e-01  6.9263229599748966e-01  4.3159617043993026e-01  7.0416380865383232e-01  5.8240189747564797e-01  2.0052016866973643e-09  1.4259175595681195e+00  1.2580609115058552e+00  2.5143109644570200e-01  2.3938933637932822e-01  4.0247759278714401e-01  1.1344781381030838e-01  8.9329736179116648e-01  7.3167841145432733e-01  8.6737864370443063e-01  9.5126722151706555e-01  9.6999908364299825e-01  9.2863958798402613e-01  1.0505438080007261e-01  4.5030208800386974e-02  6.5174988488205898e-01  2.6974949626018857e-01  2.5569522422358260e-01  2.5127677035988349e-01  3.4186273457318478e-01  4.0245155999872467e-01  2.3409369657482917e-01  1.5485394221512189e-01  6.5432056545383732e-01  1.6973728863366297e-01  1.1254061846104790e-01  1.0821962490727906e-01  7.1516787989348407e-01  7.2325584539198196e-01  1.9046840586676089e-01  5.6160570142466815e-01  1.7771538203345758e-01  4.0433741318810262e-01  3.0930816891961976e-01  5.1664686328962239e-01  6.6308868102034524e-01  1.3050426302815180e-01  7.0274272739838228e-01  3.7570175158294306e-01  6.6449170283139691e-01  7.0852614666807101e-01  2.0515323209956296e-01  3.9317147635318