<?xml version="1.0"?>
<VTKFile type="UnstructuredGrid"  version="0.1"  >
<UnstructuredGrid>
<Piece  NumberOfPoints="2446" NumberOfCells="4585">
<Points>
<DataArray  type="Float64"  NumberOfComponents="3"  format="ascii">0 0.41 0  0 0 0  2.2 0 0  2.2 0.41 0  0.2404508497187474 0.2293892626146237 0  0.25 0.2 0  0.2404508497187474 0.1706107373853764 0  0.2154508497187474 0.1524471741852423 0  0.1845491502812526 0.1524471741852423 0  0.1595491502812526 0.1706107373853764 0  0.15 0.2 0  0.1595491502812526 0.2293892626146237 0  0.1845491502812527 0.2475528258147577 0  0.2154508497187474 0.2475528258147577 0  1.1 0 0  1.1 0.41 0  0 0.205 0  0.55 0 0  0.55 0.41 0  0.275 0 0  0.275 0.41 0  1.65 0.41 0  1.65 0 0  0.8250000000000001 0.41 0  0.8250000000000001 0 0  1.375 0 0  1.375 0.41 0  1.925 0 0  1.925 0.41 0  1.5125 0.205 0  1.7875 0.205 0  0.6875 0.205 0  0.9625000000000001 0.205 0  1.2375 0.205 0  2.2 0.205 0  0.4687002074688797 0.2068568464730291 0  1.99375 0.2152743902439024 0  2.0625 0 0  2.0625 0.41 0  2.2 0.3075 0  0.4125 0 0  0.4125 0.41 0  1.7875 0.41 0  1.375 0.1486128048780488 0  1.5125 0 0  1.7875 0 0  1.5125 0.41 0  0.8250000000000001 0.2613871951219511 0  0.9625000000000001 0.41 0  0.9625000000000001 0 0  0.6875 0.41 0  0.6875 0 0  0.1375 0 0  0.1375 0.41 0  1.2375 0 0  1.1 0.1486128048780487 0  1.2375 0.41 0  1.65 0.1486128048780487 0  1.126715909090909 0.2793064024390244 0  1.676715909090909 0.2793064024390244 0  0.8517159090909092 0.1306935975609756 0  1.348284090909091 0.2793064024390244 0  0.34375 0.3032389320646208 0  1.894702181800738 0.1282910975492754 0  2.092797818199262 0.1282910975492754 0  1.85625 0.3075 0  0.61875 0.3075 0  0.61875 0.1025 0  0.3648540804333487 0.1240075933101478 0  0 0.3075 0  0 0.1025 0  2.099172119769978 0.25625 0  0.48125 0.09238439620688085 0  0.5781001037344399 0.2059284232365146 0  0.48125 0.3196743479159776 0  0.7265881057911006 0.3055240343720796 0  1.99375 0.08395950269330846 0  1.459960956013612 0.3075 0  1.569025960719943 0.2986889805672169 0  0.75625 0.08213100772579164 0  1.03125 0.3278689922742084 0  0.923871252904788 0.3078247185783941 0  1.959375 0.3126371951219512 0  1.749222215368287 0.1025 0  1.275777784631713 0.1025 0  2.2 0.1025 0  1.225938124459196 0.3075 0  1.550777784631713 0.1025 0  1.000777784631713 0.1025 0  1.44375 0.07430640243902442 0  1.16875 0.07430640243902437 0  1.899250267340833 0.2229966846119207 0  0.1020898364287272 0.3140258291809757 0  1.766482954545455 0.2934032012195123 0  0.3405058858996321 0.2119987970531874 0  0.7710785630958338 0.1710968191298857 0  1.046078563095834 0.2389031808701144 0  0.2 0.3400647632937836 0  1.421109702350723 0.2261157654379721 0  0.2800464974185557 0.08982544815605742 0  0.098916018031319 0.09171660955420841 0  2.13125 0 0  2.118919042110979 0.3422084711244843 0  1.30625 0.41 0  0.89375 0 0  1.597888256393107 0.2173787389261347 0  0.20625 0 0  1.829299675393195 0.07400700849299596 0  1.71875 0.41 0  1.16875 0.41 0  2.038220665644273 0.332420740103091 0  0.34375 0 0  0.417496017710808 0.2696595573092803 0  0.2 0.07687845740457822 0  0.9295982307099278 0.1343158415898188 0  0.07390688010811153 0.1697064032433452 0  0.5238366813727013 0.2578302467013575 0  0.05452951551825875 0.25625 0  0.5229630068078351 0.1548816096928243 0  1.452769549894695 0.1548122580621249 0  1.369219062229598 0.07430640243902442 0  1.30625 0 0  0.8504409521244898 0.3356935975609756 0  0.8821881244591965 0.205 0  1.720943423819132 0.1714577452753128 0  1.157188124459196 0.205 0  1.094219062229598 0.07430640243902437 0  1.03125 0 0  1.304056576180868 0.1714577452753128 0  1.67579304192913 0.07430640243902437 0  0.2751941921308361 0.3346083473122598 0  1.209670467133757 0.1362100266964769 0  1.025335513626278 0.1700681449722324 0  0.7562500000000001 0.41 0  1.58125 0 0  0.7567170593862014 0.2409196493502535 0  0.6926714215682891 0.1272249611432207 0  0.4139715849905988 0.3397932387114203 0  0.9840787304190477 0.2717749043358119 0  0.06875000000000001 0.41 0  0 0.35875 0  0.9281250000000001 0.06276726142697993 0  0.5507396469029935 0.3219409231578227 0  0.5504468037989405 0.09136885600634273 0  1.58125 0.41 0  1.631724228912893 0.3381867502687533 0  1.825608881788174 0.14499488549201 0  1.85625 0 0  1.44375 0 0  1.44375 0.41 0  1.85625 0.41 0  2.13125 0.41 0  0.7562500000000001 0 0  0.89375 0.41 0  0.4812500000000001 0 0  0.34375 0.41 0  0.4812500000000001 0.41 0  0.20625 0.41 0  0.06875000000000001 0 0  1.16875 0 0  0.61875 0 0  0.61875 0.41 0  1.03125 0.41 0  1.71875 0 0  1.99375 0 0  1.99375 0.41 0  1.340625 0.3489494290853124 0  1.134375 0.3489494290853123 0  1.700180620188976 0.3438659752031281 0  2.135782184673599 0.07126652247502523 0  1.668441847249787 0.2129203728327609 0  1.295782514339747 0.2378437748815763 0  0.8233075729931248 0.06842334294821524 0  1.409375 0.3520314716057996 0  0.403505597322782 0.182067236678212 0  0.378125 0.05794951541303489 0  0.3043468223249023 0.1518321115979534 0  2.129248544730567 0.1906135162504124 0  2.060771381434487 0.1989445750470348 0  2.013252586573865 0.1496169464686054 0  1.942766402200229 0.1734448904596831 0  1.895522487186454 0.06076163953489683 0  2.069553871656643 0.06605731020975725 0  1.274680914880868 0.3520219391081363 0  1.614713220494657 0.09473434380863296 0  0.7899021319497519 0.3149123934144827 0  0.69518737419149 0.0634051089053758 0  0.2971740475496061 0.2592172353407536 0  1.72990325744076 0.2380068107952482 0  1.356580098625191 0.2120393231351682 0  2.034370752044885 0.2668681600792073 0  1.51768709249349 0.3426260931494756 0  1.561883724969884 0.1650446847858835 0  1.197344062229598 0.2523725417393646 0  1.804085235518364 0.3468178408964637 0  1.817887819205233 0.2589243285818559 0  1.905897727272727 0.3485060975609756 0  0.6719798073392919 0.2688965171178177 0  0 0.05125 0  0.653125 0.35875 0  0.6396896119294488 0.1627615407790282 0  0.4274150154087412 0.1242548552168279 0  1.192836486056382 0.3562350748565544 0  0.8279124365364005 0.183856489168822 0  1.097485222388854 0.2083571153401724 0  1.28257088594801 0.2944411014911587 0  1.474860187679412 0.2504218616229368 0  1.406767003493824 0.2829282258560709 0  0.446875 0.04619219810344041 0  0.515625 0.04585361801037557 0  0.592043440706648 0.05125 0  1.845656689180403 0.1998310418452388 0  2.144958525570388 0.2909790873294231 0  0.6171090763650112 0.2492366900333857 0  2.2 0.15375 0  0.5145586920831158 0.3648371739579888 0  1.57794966442982 0.3540357145964566 0  0.721875 0.3633107922168974 0  0.0496154796471391 0.333125 0  0.5843750000000001 0.3662560860076676 0  0.5810878747760798 0.1474002776121195 0  1.508991196088596 0.1421783375065625 0  0.8840670607017558 0.2640994375393898 0  0.09776612425612034 0.2204896805326566 0  1.50436820029908 0.06143401634903343 0  1.223857000523521 0.0823554862453532 0  1.153316824384777 0.1289850171317837 0  2.148922302309752 0.1258841779285271 0  0.309375 0.04312325590431198 0  1.621993280276081 0.2841214267927899 0  1.550118654119087 0.2461998729100966 0  1.327182649291491 0.1216967252533594 0  1.051977450479407 0.1221382572915816 0  1.753125 0.04556020050186112 0  1.271875 0.04556020050186116 0  0.9816084133102366 0.05126138213476004 0  1.039051841454368 0.0572224914831029 0  0.9719230514536006 0.3480477870845102 0  1.94956388244759 0.1180512551534177 0  1.949997712993411 0.04965831614304109 0  1.771961817615021 0.1530278789497521 0  1.909246823951428 0.2812757146784527 0  0.2459536687882397 0.04668633953831142 0  1.948575539857022 0.2445328248721197 0  1.697271520964565 0.1233917627620729 0  0.7964897648514618 0.1211426571931604 0  1.065625 0.3689344961371042 0  1.085849084308977 0.3170853572226867 0  0.4702981435440001 0.260434880697798 0  1.577403511714593 0.05463601888079143 0  0.05622663515370135 0.05493816910862376 0  0.3267207591099919 0.3566194660323104 0  0.9003051618565143 0.3564049499960621 0  1.751571320346033 0.3651102912045228 0  0.1583785085108421 0.2994699345738728 0  0.1455283439499995 0.3542795598723423 0  2.2 0.35875 0  0.2347662494194072 0.298325008655211 0  0.1527284455616188 0.1065771775690181 0  0.1382139529076665 0.05427454456341477 0  0.8749341636311069 0.05110114999892954 0  0.643661668713109 0.05693499781019222 0  1.466879772203159 0.3611261772912453 0  1.990280163552011 0.3564754268533217 0  1.17471064520912 0.2990917256188288 0  0.5202693090594349 0.206382495511728 0  0 0.25625 0  2.2 0.25625 0  2.2 0.05125 0  0 0.15375 0  1.853978576207987 0.35875 0  0.9787513713939683 0.1487523696999336 0  0.240625 0.3722153812029779 0  1.515638456102889 0.2882700110184686 0  0.09048297387599738 0.3637717362208066 0  2.150453692751374 0.2387066338105111 0  1.323782677156475 0.04897634338873398 0  0.8074131292871642 0.3624701995505916 0  1.409375 0.03715320121951221 0  1.406484531114799 0.1087852750766809 0  1.134375 0.03715320121951218 0  1.627401732573545 0.04552157221025036 0  0.1170173172005315 0.1427610859166811 0  2.045405893604797 0.1105340662939892 0  1.255408269734577 0.1577307500159216 0  2.028125 0.03707597992059326 0  0.4743610090857199 0.1421513964721819 0  0.9354010469015898 0.250631300585664 0  0.04420832937638274 0.128125 0  0.8922386349349938 0.0992956419364831 0  0.1197849154434487 0.2663398672460083 0  1.248258025468107 0.2565907092181813 0  0.3746885856929528 0.370723531618974 0  1.203125 0.0366132337404304 0  0.5724622277005015 0.2751253816079333 0  0.3365425205162783 0.08395777655057959 0  2.072662025974815 0.2975086504196739 0  0.4581080832182547 0.3648371739579888 0  0.3874522734668214 0.2295447548840689 0  0.7827853612484443 0.04106550386289586 0  1.887722846421017 0.1760882698830035 0  1.472640588990488 0.1118278026240017 0  1.865937103925594 0.2604137786483804 0  1.463913572748262 0.2030442564990043 0  1.376426316059077 0.3186741374914345 0  0.6641993820150034 0.3141688596240831 0  0.2943117490824315 0.2130987422685822 0  0.3478153998082709 0.1666571081082676 0  0.3427990510599805 0.2575950027870776 0  0.7997118993855807 0.2216171933356366 0  
[...]
<PointData  Scalars="f_37"> 
<DataArray  type="Float64"  Name="f_37"  format="ascii">5.7480087664835178e-01  6.0317721944607816e-01  -3.4441540693686537e-10  -5.7227101674811491e-10  -3.7147297263666396e-01  -2.0339085575289756e-01  -4.6746506597470638e-01  -7.6161889753862755e-01  -6.8587873834123836e-01  4.7948736866098390e-01  2.1343689304410254e+00  5.0934788069570058e-01  -1.0621745953095556e+00  -5.9263536720831178e-01  2.5271261872681555e-01  2.5170973179822942e-01  9.0930654289411572e-01  3.6762251291672571e-01  3.6667422178440884e-01  3.1249605086513998e-01  3.4094893312861002e-01  1.2619793242645297e-01  1.2692281463850863e-01  3.1388387072376933e-01  3.1394643864497640e-01  1.8835342450561002e-01  1.8891849955528267e-01  6.1797744799126045e-02  6.2129846032320322e-02  1.5741589970758360e-01  9.4376818526384743e-02  3.4720381070662226e-01  2.8330670175481493e-01  2.2030964662341765e-01  -1.3457571112886774e-10  4.3110051617694589e-01  4.7147271499603606e-02  2.9760526157447235e-02  3.2428987102990942e-02  -1.7407738894082711e-10  3.2750966838195616e-01  3.3668021767726020e-01  9.5378419964345443e-02  1.8885196279977068e-01  1.5698998373707287e-01  9.5105259834552647e-02  1.5850919482518266e-01  3.1475729064771790e-01  2.8409337720801414e-01  2.8352301293954774e-01  3.4457481239142645e-01  3.4403822354358082e-01  5.1082947295139836e-01  4.9444460233283105e-01  2.2043470592545819e-01  2.5178086590388332e-01  2.2060176189323719e-01  1.2593785737149707e-01  2.4560683786679616e-01  1.1981876833158728e-01  3.0869530600008710e-01  1.9493116792486470e-01  2.7855278408001005e-01  6.9821495593098748e-02  2.4486995662881927e-02  7.8609766520642249e-02  3.6150016162327098e-01  3.6172156738140493e-01  3.4065163731564774e-01  6.7005441313803016e-01  7.0233360635680042e-01  2.3035526653031987e-02  3.8555969056061629e-01  3.7735142060318300e-01  3.8407068987831394e-01  3.3717431175024698e-01  4.7226083973436396e-02  1.6946705356322872e-01  1.4444173207746325e-01  3.3046749974716727e-01  2.6742708411460908e-01  2.9212431658297111e-01  5.5088290756961533e-02  1.0314377075718552e-01  2.1155062836439759e-01  -7.1161418410714013e-10  2.2297701060956804e-01  1.4863864675557203e-01  2.7453492115939920e-01  1.7309876573659064e-01  2.3604044289308876e-01  6.8797596515012910e-02  6.0789523083798602e-01  9.9131704775897389e-02  3.5156818392660433e-01  3.2732656856317927e-01  2.6419824542681414e-01  2.8400665728136759e-01  1.7833055060691963e-01  1.2224473202560172e-01  6.4162462225112493e-01  1.5666912711476959e-02  1.8577091519903336e-02  2.0415319056094222e-01  2.9883423362044559e-01  1.3786364111252913e-01  4.1586478719615416e-01  8.4810366911516263e-02  1.0880500109554407e-01  2.3510355245523756e-01  3.6901361775251010e-02  2.8532349750318003e-01  4.2497755846968194e-01  2.3458119490247001e-01  2.9082924206311256e-01  1.0389818815922189e+00  3.9259062489269370e-01  8.6638605530114166e-01  3.9398219470226514e-01  1.7107599993244821e-01  1.9009600667873802e-01  2.0449775983171972e-01  3.0863913626354911e-01  3.0171596979611920e-01  1.0963569450450004e-01  2.3866660509711005e-01  2.5318499112909665e-01  2.6652102480488765e-01  2.0505389334066595e-01  1.2006556715100511e-01  2.2515859917793746e-01  2.2665571148149949e-01  2.6891067300030819e-01  3.3146498409827813e-01  1.4195798155244641e-01  3.3059126330808281e-01  3.4533739631674482e-01  3.6143145592570119e-01  2.7836336330099348e-01  5.5325150964920555e-01  5.8733962754231539e-01  2.9101326142171757e-01  3.7453112373333974e-01  3.7496284184441420e-01  1.4120646048602939e-01  1.3018357277588768e-01  8.5619114645680158e-02  7.8272954192068797e-02  1.7315745787281006e-01  1.7287853393348845e-01  7.7998297775829381e-02  1.6623996636875915e-02  3.3088971085936481e-01  2.9861760300361584e-01  3.6361871672090257e-01  3.1140819097277045e-01  3.6500878956268856e-01  4.2445681138469166e-01  5.8093326719747373e-01  2.3505115988079514e-01  3.5877093460150589e-01  3.5774273990986821e-01  2.6769597773823928e-01  1.1039856208627234e-01  4.7442169613230036e-02  4.6325952110337416e-02  1.9639843121438558e-01  2.4373869125133110e-01  1.1437370066262532e-01  1.4747925811895142e-02  1.2167157401176010e-01  2.0694928250486250e-01  3.1527773351776656e-01  1.8115723556442961e-01  4.9441236797184412e-01  3.2064455013036874e-01  -3.5676685775773731e-01  1.6183357288280676e-02  3.1808873451677974e-02  4.2681641088101539e-02  5.8832476430877231e-02  6.9613557235617782e-02  2.9644460396003804e-02  2.1164727418767482e-01  1.3405835707447117e-01  3.2260644332477761e-01  3.4401092057808152e-01  -4.0443110165116236e-01  1.0759619804954468e-01  1.9305911270620135e-01  3.7851517309718238e-02  1.5624305387232781e-01  1.4612499435743867e-01  2.2948780529171600e-01  9.0657714260482677e-02  8.7407605530067448e-02  6.7081608790931627e-02  3.5035549574319130e-01  6.1670949323624613e-01  3.5218535000042156e-01  3.5888006329534305e-01  4.1256769141101113e-01  2.3075711669811647e-01  3.1420892904403674e-01  2.5229564699203144e-01  2.0994533018146097e-01  1.6604560609172500e-01  1.8162379236642914e-01  3.5994374358832748e-01  3.7103717132187586e-01  3.6406768846308224e-01  8.1079525921600948e-02  1.2623792020371897e-02  3.6461960325824505e-01  -1.3457571112886774e-10  3.7190354505994544e-01  1.4233730625053109e-01  3.3788264505402821e-01  6.1017472010955254e-01  3.6476207031975344e-01  3.7391104604403902e-01  1.5820916652611225e-01  3.0120374648146647e-01  1.2595872892979780e+00  1.5939755424895968e-01  2.2342848255056566e-01  2.3954109023363104e-01  1.1700987191478312e-02  2.6779796608352757e-01  1.3230411446439028e-01  1.4880856410330873e-01  1.9977011093852148e-01  2.6279690319731297e-01  1.0212058173869286e-01  2.1245731726088896e-01  2.7922152202328704e-01  2.6572232992416023e-01  2.8095179834683892e-01  5.7281075647530946e-02  5.7161705726146234e-02  9.7950948483341183e-02  6.6550066205080596e-02  2.9041445573300101e-01  5.7548306157052739e-02  1.1513548715867267e-01  3.2141300871790002e-01  2.6012136963000443e-01  2.5507783646903470e-01  4.1311177171476587e-01  1.4234991412516831e-01  6.1020499730535205e-01  2.9545992439490232e-01  2.9755428722767147e-01  1.0224290233554811e-01  3.6738016106179927e-01  4.5313706287304939e-01  -5.7227101674811491e-10  -2.3573305662238048e-02  4.1587783347308521e-01  4.8940505902520048e-01  3.0324739944375029e-01  3.5477314608029087e-01  1.6788971251366677e-01  4.8283476551377734e-02  2.3467146509500036e-01  3.9951821572658958e-01  8.1788271203051310e-01  -4.7066997676917387e-10  -7.2731722821668483e-10  8.4209946611777886e-01  7.9292519434730965e-02  2.7958435848000279e-01  3.4944169773236716e-01  1.5670641767708135e-01  5.4454033025360682e-01  1.1346132721731721e-02  2.0041542842214569e-01  3.1808245184559591e-01  1.8080949416314532e-01  1.8167603434400909e-01  2.4435397504749345e-01  1.3123670430128584e-01  9.0238293427023308e-01  3.5270402719325314e-02  2.1621134647342266e-01  3.9232325901926532e-02  4.1059198436108180e-01  2.8948280842550816e-01  7.8640039721494426e-01  2.9934293563689274e-01  8.0587385579496218e-01  2.1783396635450741e-01  3.2378967584021007e-01  2.2785897096304575e-01  3.7513065539121615e-01  2.4793433167703341e-01  2.9058207433941875e-02  3.6508612761501469e-01  4.8668449890955778e-01  3.2426609650171867e-01  7.1430970514590228e-02  1.6655666015014300e-01  7.6426562908043352e-02  1.6852916659759140e-01  1.8849170253381972e-01  3.5111823440624801e-01  -3.5787326270193981e-01  3.5001163704761523e-01  2.2060439709503277e-01  3.2064838174176330e-01  1.0931780636879207e-01  9.7454655324677814e-02  2.1719782110801569e-02  3.3899502701447370e-01  3.3460098610333927e-01  2.7443737734939849e-01  2.6804312038782785e-01  2.5413333350868572e-01  1.8420495930624131e-01  -5.1440691173379083e-01  3.8984333030336153e-02  1.3667323809652798e-01  3.5892712407549826e-01  3.4139050525815678e-01  8.8774449544633274e-02  9.8328652931619875e-01  4.7931678702947109e-02  8.7254879168146456e-03  2.4352950832922753e-02  2.8083257464345063e-02  5.5540401920348392e-01  3.3491435525992796e-01  1.3307705203549311e-01  9.2985125573435273e-02  4.4340647773791292e-02  4.6775891523169072e-01  1.8706713380052650e-01  2.2947316274458662e-01  1.6514731601981705e-01  1.3021020524292798e-01  1.4879840081887918e-01  3.0714069585937254e-01  1.1756758060833622e-01  1.1281250206310542e-01  2.7446696274036897e-01  2.7161317390281775e-01  8.9648136346341910e-03  9.8008849380496286e-03  5.7115358799432459e-01  3.5103451610355740e-01  3.2850512923342956e-01  2.9249841005123733e-01  3.0149289789200506e-01  1.2937507572747928e-01  9.2377294837546711e-02  7.6032010844061748e-02  1.4806054485281794e-01  5.8234179152147070e-02  4.6928805697245318e-01  -2.4503436490856109e-01  8.6642553703963079e-02  2.5736658677357144e-01  1.0604465672571130e-01  1.2358247587667820e-01  2.8350221035988438e-01  3.6936464742828951e-01  4.6176226441014451e-01  3.2733899015011128e-02  2.9069457917949276e-01  1.4804706572569917e-01  2.2143782126178513e-01  2.4179674665228093e-02  1.6776653357918969e-01  3.9806300326133237e-01  2.5914140912297684e-01  4.4353446455342188e-01  1.3972301577772533e-01  3.2408645706177308e-01  3.6921114760201057e-01  3.9165451968530313e-01  3.3359955720168044e-01  2.4460242171477989e-01  3.0773568072999874e-01  2.4512188971695703e-01  2.4320586644353842e-01  1.4076054849549064e+00  8.9889828756903219e-03  2.0111778445243428e-01  4.8565588250858500e-02  3.0820866398517976e-01  6.9722081247549764e-02  7.8308085901075866e-02  7.0511210087439963e-02  6.2118585859955083e-02  1.5782588983637599e-01  1.1153869334127228e-01  1.2267380625968341e-01  1.2523687186116447e-01  5.9960128252838407e-01  3.0063552600562260e-01  1.0085160110222065e-01  5.7624894539658122e-01  3.6803705570657499e-02  1.7987960521135693e-01  3.4852893209825664e-01  2.7627152940404243e-01  7.0354787640427208e-01  3.6878299795054120e-01  1.4101488394720882e-01  9.6423359866968192e-02  3.3996060962980057e-01  2.8914806359398371e-01  3.4502464173180886e-01  1.6268415373182166e-01  9.0593966001940629e-01  2.3773415027256078e-01  3.0818133740970943e-01  3.8298517304188241e-02  1.7314318982153373e-01  3.1685127054339668e-01  4.1452607641703720e-01  1.5739642286645950e-01  3.1492401673071546e-01  3.6872234108284330e-01  4.1191537629312175e-01  3.9148972041128344e-01  3.8408597624744911e-01  1.2695285965618253e-01  3.9378943838329555e-01  3.8643714208869351e-01  3.0541377681987758e-01  7.4449242627582857e-01  1.5326441450080927e-01  1.0359092956788041e-01  2.1109956020908419e-01  1.0700851066212386e-01  2.0771970619437186e-01  1.9017932463402168e-01  1.9186828995266417e-01  2.5436522537445971e-01  1.1771601546840949e-01  1.9714191279458010e-01  5.1703951945715428e-02  8.4789891350315250e-01  3.1495768755510617e-01  2.3051356383219165e-01  2.1876641667112615e-01  6.7726463086026012e-01  2.3021608144063008e-01  1.3682518461765647e-01  1.2196991184563463e-01  3.9814694099666548e-01  -8.0971452668937891e-02  -3.6323501985110523e-01  6.4687991573490444e-01  4.1001421541117100e-01  1.3107742759382024e-01  1.3839907704787738e-01  1.5344350470955312e-01  3.5404623637770133e-01  8.7292650005087055e-02  3.3255032513650945e-01  3.1277567907461737e-02  3.9506670056117361e-02  2.0342165240931481e-01  -5.2337950531582023e-01  2.0876849974250225e-02  1.8993000418649899e-02  8.4190664571472847e-03  9.7807292618865796e-02  1.5021716285340156e-01  2.6791694478489875e-01  2.7185067933578949e-01  2.7676482969472693e-01  3.4810458724734222e-01  1.8122017594589485e-01  2.5237215876033664e-01  2.8615421000621483e-01  2.9582915689377542e-01  3.0761143718376077e-01  3.1114354330801747e-01  8.1110837777020536e-03  1.8225797658986593e-02  2.7177570372166510e-01  5.5606200839771740e-02  2.0895125762170300e-02  3.3247099979372924e-01  2.2808507757854282e-01  2.9105442806204807e-01  7.8153738016631946e-02  9.0991585608098030e-02  3.7465304014458223e-01  2.8647464130516070e-01  3.4826329035837744e-01  2.9125476257945121e-01  -2.2182091411811811e-02  2.8404354151523897e-01  3.1967010568283033e-01  2.3733010623738998e-01  2.4269818416290084e-01  2.0382643444409873e-01  1.9624562992914757e-01  1.8910064996805295e-01  2.4235291627004815e-01  1.7586527072531341e-01  1.7913077197429281e-02  2.2983653800990175e-01  3.2155087193368359e-01  3.7019440423464861e-01  5.3985940687403344e-01  4.3739315724756744e-01  3.3262757854744279e-01  3.0553583916107468e-01  3.7855619167505467e-01  3.8340201994718115e-01  3.6672863284756280e-01  3.5932366143431727e-01  7.9138209334190149e-02  2.2016144720027575e-01  2.8203616070353116e-01  3.7841374198455030e-01  3.8111447075238397e-01  3.7046291867169145e-01  1.8063977409935730e-01  1.1933675188205252e-01  4.7276080534256679e-02  3.9070713423289695e-02  5.4854437563508426e-02  2.1154092616470094e-01  2.4732639784115934e-01  2.3560377532587137e-01  3.6645213427322354e-01  1.9637837696837765e-01  2.6022088091506507e-01  7.3553567096364845e-03  2.4597330577148226e-02  2.4410831518835965e-01  1.8107000381782121e-01  1.6573778760833333e-01  1.0232547687750360e-01  2.6062565437638763e-01  1.0091781469376533e-01  3.3756954477914553e-01  1.8224381684004595e-01  3.3815890089945511e-01  6.8360732432143165e-03  2.9062524842572035e-01  3.1945856003171180e-01  3.5239023445971368e-01  3.5480415285219591e-01  5.4912105321166915e-01  3.8212744876282911e-01  3.5715054128064139e-01  5.2397075928976644e-01  3.5332897778044581e-01  3.2209667932688002e-01  2.8980738454347443e-01  3.6590162920130082e-01  3.7014523293873441e-01  3.6350735862384714e-01  3.6760563790367007e-01  3.5249309172416460e-01  2.7470529575086711e-01  2.2820357211958944e-01  1.3294359337389303e-01  5.6844500987917303e-02  2.1273490472302983e-01  3.8924625752965673e-02  5.6414537629870684e-02  1.0989685213386458e-01  4.3300325444010079e-02  3.2285790731763819e-01  1.7424304861974169e-01  2.3553062919928502e-01  3.5254362986960297e-01  1.9818548514499171e-01  2.0320217291039891e-01  2.3605044653764784e-01  1.5152313854546079e-01  1.6167048246115504e-01  6.6590709269692586e-02  4.0723328856418523e-01  1.7377249473396675e-01  1.7722854810759359e-01  1.1413591721798615e-01  7.0377382790593898e-02  1.1289569360995984e-01  1.0358138668020712e-01  3.5217146735791777e-01  8.4890210875029459e-02  1.2172902284940292e-01  2.0288137307929835e-01  6.2710201923694406e-02  1.6154882175337873e-01  3.1465948705105645e-01  2.5934014888413509e-01  2.7850952960622227e-01  8.7962057174482111e-01  7.3068797656533711e-03  1.3715763461916847e-01  3.5742859800241222e-01  3.1341486312621736e-02  2.5641635760294369e-02  2.6689572481038976e-01  3.4603001129787908e-01  1.9143901122250170e-01  9.4203243033472361e-01  2.1849820429317174e-01  6.3041946578057978e-02  6.5382690071309507e-02  4.9674847147448820e-01  2.5917276113725660e-02  3.8045565112051083e-01  3.5632083685593929e-01  3.4239973188615253e-01  2.9647429165817341e-01  3.6603915034357302e-02  9.0649774698948776e-02  2.6032170964585921e-01  8.3784281397601121e-02  1.1501141868952927e-01  8.1754016930371876e-02  5.4684255097222551e-02  7.2642240893474857e-03  3.8908307297039929e-01  2.8505067009893675e-01  1.4428079829608276e-01  3.1436500655032290e-01  2.8843330734859862e-01  1.4152102493675187e-01  1.2767681579428833e-01  5.2916109705567294e-01  6.6263542661925884e-02  -1.4560271404797068e-01  1.4547804794045935e-01  -4.9487693465312238e-01  -1.7861775026948742e-01  4.6644287175820698e-01  3.6430565861085817e-01  1.3780951460553809e-01  2.4694506979596212e-01  1.5268168377966945e-01  2.3645648728421467e-01  1.9619383880737321e-01  2.8382949258152618e-01  3.4191566069889939e-01  3.6766712490759013e-01  7.4422834124099335e-02  3.4425119559852907e-01  5.9451516556595460e-02  2.2237439958530630e-01  2.9827565319691801e-01  1.4544772003515666e-01  8.8976767515983116e-02  2.6032195922445295e-01  2.2948830047452445e-01  1.2458700401169920e+00  1.0360184703118354e-01  3.5910766851834114e-01  2.1529577267852262e-01  2.2404916560358548e-01  2.3538806057624875e-01  1.2299794010069065e-01  1.6628864720357053e-01  9.2992196878445607e-02  8.3216295317846911e-02  2.4369585970698139e-02  1.6136973362628296e-01  5.2419158557894301e-02  6.0395941166828104e-01  6.0314760759809327e-01  1.5104395451064268e-01  6.8851953397756460e-02  2.0773506670825187e-01  7.4530076585452310e-01  3.7640075024531200e-01  1.4908787609303698e-01  3.7242966884030254e-01  3.7759413404169384e-01  3.9909296304978020e-01  5.0258002355404938e-02  4.3610653717606507e-01  1.9559890214052533e-01  2.3996333492765562e-01  2.1598654482027335e-01  8.3301882534146748e-02  2.9562223120034370e-01  8.9381175211188990e-01  9.7826873487218483e-02  2.9875247664872429e-01  2.2680011984079013e-02  3.2978017077638100e-01  8.5165442443621509e-02  2.2335855506250868e-01  1.3065095060452958e-01  7.3498923075270131e-02  -4.7066997676917387e-10  2.5245308190109705e-01  3.6820646341557917e-01  2.5228191578934200e-01  2.4562199645726807e-01  3.0880260039284263e-01  1.2630566049628547e-01  3.5340597274235713e-01  8.0736314602724724e-03  2.7022838130675603e-01  3.1013323869579733e-02  2.7281931851126801e-01  5.2600769337475739e-01  5.1080092837823510e-01  6.9581539865957012e-02  2.9801258860299806e-01  1.8488612009137156e-01  1.7142144106341467e-01  1.6655194582970576e-01  1.6166866367883509e-01  1.7412299092114791e-01  7.5330756752601410e-02  3.1854603505657675e-01  3.3748528842085312e-01  2.7437611368593023e-01  3.2630101630519903e-01  3.0885517592659062e-01  1.8819901130206990e-01  1.7877171452597387e-01  3.2584881028352713e-01  2.5079017151763250e-01  7.4190836596841711e-02  2.8948040598406916e-01  3.5696199948562990e-01  3.6649467209868752e-01  3.3913402662654119e-01  -1.0672373728607584e-09  3.3573595409691159e-01  2.1712400112075231e-01  2.1092733656336851e-01  3.1177515793604327e-01  2.1025034949210661e-01  3.3424649816513297e-01  1.0761402686005246e-01  3.0813960737007345e-01  2.4844738076897172e-01  3.6073828228664717e-01  4.8221921800485890e-01  4.4509097570154456e-02  2.6517686208069957e-01  3.1440635846597903e-01  3.7280248524134779e-01  1.6471974185721316e-01  1.2835804641172344e-01  3.7588803133336102e-01  3.2778960380398725e-01  3.2890194833373021e-01  3.7465822210006255e-01  -2.4019595984347303e-01  9.7902947109530625e-02  1.4548753667454509e-02  1.5969742905751400e-02  6.6717385732228346e-03  3.6980535505538864e-01  7.5004695511756286e-02  4.8734774454158782e-02  2.6321535804391438e-01  2.0665861759166007e-01  1.0620748449256613e-01  9.7178565249324306e-02  1.3910391991639273e-01  3.4040195241084731e-01  2.3306364129086143e-01  2.3707809689297391e-01  2.1490378654155437e-01  1.9739982720154561e-01  2.2515730912162804e-01  2.6179449733602522e-01  2.5944181182350573e-01  3.1802528744258357e-01  3.6809341740697465e-01  3.7418562433992092e-01  2.0917036937159478e-01  5.9729530350567850e-01  2.9674915881745040e-01  5.8480469753850362e-01  4.6495826980878258e-01  3.0765965301892834e-01  2.4571401206054991e-01  3.0799741078550791e-01  3.3289205270521754e-01  -1.3457571112886774e-10  1.2077234960050676e+00  1.0179609088543906e+00  1.4282917751263091e-01  1.3554599470582551e-01  -1.1265513116270246e-02  6.4035444159224922e-02  6.7035631850489030e-01  4.6188143746321858e-01  6.1749118883754228e-01  6.1955666022069400e-01  6.5794920030065784e-01  5.4254848608783035e-01  5.9278946731779823e-02  2.5224334800020582e-02  3.7193677661279256e-01  1.5366640964658801e-01  1.4553772502635082e-01  1.4307992269112976e-01  1.9500471486937526e-01  2.2951888537119042e-01  1.3326796521293544e-01  8.7801560674324486e-02  3.6743076318390067e-01  9.5959356266914875e-02  6.3324884709374682e-02  6.0507699643357296e-02  3.4829154192728246e-01  4.4563393428813175e-01  1.0797078534056188e-01  3.2088853832080416e-01  1.0087679679755809e-01  2.3207870200122716e-01  1.7617376004953195e-01  2.9495896193335641e-01  3.6948896627319217e-01  7.3821307579168369e-02  2.8260948673107045e-01  2.1455144723040673e-01  3.8769837357418274e-01  4.1259050770989497e-01  1.1663005