<?xml version="1.0"?>
<VTKFile type="UnstructuredGrid"  version="0.1"  >
<UnstructuredGrid>
<Piece  NumberOfPoints="2446" NumberOfCells="4585">
<Points>
<DataArray  type="Float64"  NumberOfComponents="3"  format="ascii">0 0.41 0  0 0 0  2.2 0 0  2.2 0.41 0  0.2404508497187474 0.2293892626146237 0  0.25 0.2 0  0.2404508497187474 0.1706107373853764 0  0.2154508497187474 0.1524471741852423 0  0.1845491502812526 0.1524471741852423 0  0.1595491502812526 0.1706107373853764 0  0.15 0.2 0  0.1595491502812526 0.2293892626146237 0  0.1845491502812527 0.2475528258147577 0  0.2154508497187474 0.2475528258147577 0  1.1 0 0  1.1 0.41 0  0 0.205 0  0.55 0 0  0.55 0.41 0  0.275 0 0  0.275 0.41 0  1.65 0.41 0  1.65 0 0  0.8250000000000001 0.41 0  0.8250000000000001 0 0  1.375 0 0  1.375 0.41 0  1.925 0 0  1.925 0.41 0  1.5125 0.205 0  1.7875 0.205 0  0.6875 0.205 0  0.9625000000000001 0.205 0  1.2375 0.205 0  2.2 0.205 0  0.4687002074688797 0.2068568464730291 0  1.99375 0.2152743902439024 0  2.0625 0 0  2.0625 0.41 0  2.2 0.3075 0  0.4125 0 0  0.4125 0.41 0  1.7875 0.41 0  1.375 0.1486128048780488 0  1.5125 0 0  1.7875 0 0  1.5125 0.41 0  0.8250000000000001 0.2613871951219511 0  0.9625000000000001 0.41 0  0.9625000000000001 0 0  0.6875 0.41 0  0.6875 0 0  0.1375 0 0  0.1375 0.41 0  1.2375 0 0  1.1 0.1486128048780487 0  1.2375 0.41 0  1.65 0.1486128048780487 0  1.126715909090909 0.2793064024390244 0  1.676715909090909 0.2793064024390244 0  0.8517159090909092 0.1306935975609756 0  1.348284090909091 0.2793064024390244 0  0.34375 0.3032389320646208 0  1.894702181800738 0.1282910975492754 0  2.092797818199262 0.1282910975492754 0  1.85625 0.3075 0  0.61875 0.3075 0  0.61875 0.1025 0  0.3648540804333487 0.1240075933101478 0  0 0.3075 0  0 0.1025 0  2.099172119769978 0.25625 0  0.48125 0.09238439620688085 0  0.5781001037344399 0.2059284232365146 0  0.48125 0.3196743479159776 0  0.7265881057911006 0.3055240343720796 0  1.99375 0.08395950269330846 0  1.459960956013612 0.3075 0  1.569025960719943 0.2986889805672169 0  0.75625 0.08213100772579164 0  1.03125 0.3278689922742084 0  0.923871252904788 0.3078247185783941 0  1.959375 0.3126371951219512 0  1.749222215368287 0.1025 0  1.275777784631713 0.1025 0  2.2 0.1025 0  1.225938124459196 0.3075 0  1.550777784631713 0.1025 0  1.000777784631713 0.1025 0  1.44375 0.07430640243902442 0  1.16875 0.07430640243902437 0  1.899250267340833 0.2229966846119207 0  0.1020898364287272 0.3140258291809757 0  1.766482954545455 0.2934032012195123 0  0.3405058858996321 0.2119987970531874 0  0.7710785630958338 0.1710968191298857 0  1.046078563095834 0.2389031808701144 0  0.2 0.3400647632937836 0  1.421109702350723 0.2261157654379721 0  0.2800464974185557 0.08982544815605742 0  0.098916018031319 0.09171660955420841 0  2.13125 0 0  2.118919042110979 0.3422084711244843 0  1.30625 0.41 0  0.89375 0 0  1.597888256393107 0.2173787389261347 0  0.20625 0 0  1.829299675393195 0.07400700849299596 0  1.71875 0.41 0  1.16875 0.41 0  2.038220665644273 0.332420740103091 0  0.34375 0 0  0.417496017710808 0.2696595573092803 0  0.2 0.07687845740457822 0  0.9295982307099278 0.1343158415898188 0  0.07390688010811153 0.1697064032433452 0  0.5238366813727013 0.2578302467013575 0  0.05452951551825875 0.25625 0  0.5229630068078351 0.1548816096928243 0  1.452769549894695 0.1548122580621249 0  1.369219062229598 0.07430640243902442 0  1.30625 0 0  0.8504409521244898 0.3356935975609756 0  0.8821881244591965 0.205 0  1.720943423819132 0.1714577452753128 0  1.157188124459196 0.205 0  1.094219062229598 0.07430640243902437 0  1.03125 0 0  1.304056576180868 0.1714577452753128 0  1.67579304192913 0.07430640243902437 0  0.2751941921308361 0.3346083473122598 0  1.209670467133757 0.1362100266964769 0  1.025335513626278 0.1700681449722324 0  0.7562500000000001 0.41 0  1.58125 0 0  0.7567170593862014 0.2409196493502535 0  0.6926714215682891 0.1272249611432207 0  0.4139715849905988 0.3397932387114203 0  0.9840787304190477 0.2717749043358119 0  0.06875000000000001 0.41 0  0 0.35875 0  0.9281250000000001 0.06276726142697993 0  0.5507396469029935 0.3219409231578227 0  0.5504468037989405 0.09136885600634273 0  1.58125 0.41 0  1.631724228912893 0.3381867502687533 0  1.825608881788174 0.14499488549201 0  1.85625 0 0  1.44375 0 0  1.44375 0.41 0  1.85625 0.41 0  2.13125 0.41 0  0.7562500000000001 0 0  0.89375 0.41 0  0.4812500000000001 0 0  0.34375 0.41 0  0.4812500000000001 0.41 0  0.20625 0.41 0  0.06875000000000001 0 0  1.16875 0 0  0.61875 0 0  0.61875 0.41 0  1.03125 0.41 0  1.71875 0 0  1.99375 0 0  1.99375 0.41 0  1.340625 0.3489494290853124 0  1.134375 0.3489494290853123 0  1.700180620188976 0.3438659752031281 0  2.135782184673599 0.07126652247502523 0  1.668441847249787 0.2129203728327609 0  1.295782514339747 0.2378437748815763 0  0.8233075729931248 0.06842334294821524 0  1.409375 0.3520314716057996 0  0.403505597322782 0.182067236678212 0  0.378125 0.05794951541303489 0  0.3043468223249023 0.1518321115979534 0  2.129248544730567 0.1906135162504124 0  2.060771381434487 0.1989445750470348 0  2.013252586573865 0.1496169464686054 0  1.942766402200229 0.1734448904596831 0  1.895522487186454 0.06076163953489683 0  2.069553871656643 0.06605731020975725 0  1.274680914880868 0.3520219391081363 0  1.614713220494657 0.09473434380863296 0  0.7899021319497519 0.3149123934144827 0  0.69518737419149 0.0634051089053758 0  0.2971740475496061 0.2592172353407536 0  1.72990325744076 0.2380068107952482 0  1.356580098625191 0.2120393231351682 0  2.034370752044885 0.2668681600792073 0  1.51768709249349 0.3426260931494756 0  1.561883724969884 0.1650446847858835 0  1.197344062229598 0.2523725417393646 0  1.804085235518364 0.3468178408964637 0  1.817887819205233 0.2589243285818559 0  1.905897727272727 0.3485060975609756 0  0.6719798073392919 0.2688965171178177 0  0 0.05125 0  0.653125 0.35875 0  0.6396896119294488 0.1627615407790282 0  0.4274150154087412 0.1242548552168279 0  1.192836486056382 0.3562350748565544 0  0.8279124365364005 0.183856489168822 0  1.097485222388854 0.2083571153401724 0  1.28257088594801 0.2944411014911587 0  1.474860187679412 0.2504218616229368 0  1.406767003493824 0.2829282258560709 0  0.446875 0.04619219810344041 0  0.515625 0.04585361801037557 0  0.592043440706648 0.05125 0  1.845656689180403 0.1998310418452388 0  2.144958525570388 0.2909790873294231 0  0.6171090763650112 0.2492366900333857 0  2.2 0.15375 0  0.5145586920831158 0.3648371739579888 0  1.57794966442982 0.3540357145964566 0  0.721875 0.3633107922168974 0  0.0496154796471391 0.333125 0  0.5843750000000001 0.3662560860076676 0  0.5810878747760798 0.1474002776121195 0  1.508991196088596 0.1421783375065625 0  0.8840670607017558 0.2640994375393898 0  0.09776612425612034 0.2204896805326566 0  1.50436820029908 0.06143401634903343 0  1.223857000523521 0.0823554862453532 0  1.153316824384777 0.1289850171317837 0  2.148922302309752 0.1258841779285271 0  0.309375 0.04312325590431198 0  1.621993280276081 0.2841214267927899 0  1.550118654119087 0.2461998729100966 0  1.327182649291491 0.1216967252533594 0  1.051977450479407 0.1221382572915816 0  1.753125 0.04556020050186112 0  1.271875 0.04556020050186116 0  0.9816084133102366 0.05126138213476004 0  1.039051841454368 0.0572224914831029 0  0.9719230514536006 0.3480477870845102 0  1.94956388244759 0.1180512551534177 0  1.949997712993411 0.04965831614304109 0  1.771961817615021 0.1530278789497521 0  1.909246823951428 0.2812757146784527 0  0.2459536687882397 0.04668633953831142 0  1.948575539857022 0.2445328248721197 0  1.697271520964565 0.1233917627620729 0  0.7964897648514618 0.1211426571931604 0  1.065625 0.3689344961371042 0  1.085849084308977 0.3170853572226867 0  0.4702981435440001 0.260434880697798 0  1.577403511714593 0.05463601888079143 0  0.05622663515370135 0.05493816910862376 0  0.3267207591099919 0.3566194660323104 0  0.9003051618565143 0.3564049499960621 0  1.751571320346033 0.3651102912045228 0  0.1583785085108421 0.2994699345738728 0  0.1455283439499995 0.3542795598723423 0  2.2 0.35875 0  0.2347662494194072 0.298325008655211 0  0.1527284455616188 0.1065771775690181 0  0.1382139529076665 0.05427454456341477 0  0.8749341636311069 0.05110114999892954 0  0.643661668713109 0.05693499781019222 0  1.466879772203159 0.3611261772912453 0  1.990280163552011 0.3564754268533217 0  1.17471064520912 0.2990917256188288 0  0.5202693090594349 0.206382495511728 0  0 0.25625 0  2.2 0.25625 0  2.2 0.05125 0  0 0.15375 0  1.853978576207987 0.35875 0  0.9787513713939683 0.1487523696999336 0  0.240625 0.3722153812029779 0  1.515638456102889 0.2882700110184686 0  0.09048297387599738 0.3637717362208066 0  2.150453692751374 0.2387066338105111 0  1.323782677156475 0.04897634338873398 0  0.8074131292871642 0.3624701995505916 0  1.409375 0.03715320121951221 0  1.406484531114799 0.1087852750766809 0  1.134375 0.03715320121951218 0  1.627401732573545 0.04552157221025036 0  0.1170173172005315 0.1427610859166811 0  2.045405893604797 0.1105340662939892 0  1.255408269734577 0.1577307500159216 0  2.028125 0.03707597992059326 0  0.4743610090857199 0.1421513964721819 0  0.9354010469015898 0.250631300585664 0  0.04420832937638274 0.128125 0  0.8922386349349938 0.0992956419364831 0  0.1197849154434487 0.2663398672460083 0  1.248258025468107 0.2565907092181813 0  0.3746885856929528 0.370723531618974 0  1.203125 0.0366132337404304 0  0.5724622277005015 0.2751253816079333 0  0.3365425205162783 0.08395777655057959 0  2.072662025974815 0.2975086504196739 0  0.4581080832182547 0.3648371739579888 0  0.3874522734668214 0.2295447548840689 0  0.7827853612484443 0.04106550386289586 0  1.887722846421017 0.1760882698830035 0  1.472640588990488 0.1118278026240017 0  1.865937103925594 0.2604137786483804 0  1.463913572748262 0.2030442564990043 0  1.376426316059077 0.3186741374914345 0  0.6641993820150034 0.3141688596240831 0  0.2943117490824315 0.2130987422685822 0  0.3478153998082709 0.1666571081082676 0  0.3427990510599805 0.2575950027870776 0  0.7997118993855807 0.2216171933356366 0  
[...]
<PointData  Scalars="f_37"> 
<DataArray  type="Float64"  Name="f_37"  format="ascii">7.1646654880379901e-01  7.3698759838953309e-01  -1.7313443953721243e-10  -3.7369165748589096e-10  -2.0409584938962482e-02  2.7088820376906231e-01  3.5039054102166928e-02  -7.2613211021681934e-01  -5.3365751200299483e-01  5.3792908789996730e-01  2.1114210494498979e+00  6.1583595568480232e-01  -7.3217712095540466e-01  -5.0640045552544433e-01  3.5044003174815902e-01  3.4985132502778804e-01  9.8956208190308459e-01  5.2136849952698172e-01  5.1792976440883387e-01  5.2833990311900314e-01  5.5256058551635079e-01  1.7200532222973489e-01  1.7643351413834360e-01  4.3748655396839675e-01  4.3284316195615330e-01  2.6377843379792276e-01  2.6296509885918329e-01  8.5965017160326132e-02  8.9422047759007306e-02  2.1911830113991743e-01  1.3175189177842675e-01  4.8177776439219355e-01  3.9395283465467251e-01  3.0634508177743913e-01  5.1598102508631343e-10  5.6273505459624407e-01  6.6053871564761862e-02  4.2482778057696104e-02  4.7918629802043131e-02  1.4191234102445167e-10  5.4098520372514758e-01  5.4610710796420492e-01  1.3302864062843464e-01  2.6264910589645268e-01  2.1645753770619569e-01  1.3268448662105295e-01  2.1545152748050508e-01  4.3764500682433255e-01  3.9565637811973248e-01  3.9436375170392346e-01  4.8026405451031196e-01  4.7853971790140859e-01  8.1467239789656098e-01  8.2076090505856358e-01  3.0646475251671246e-01  3.5017190452789532e-01  3.0586679821908908e-01  1.7547392684140808e-01  3.4156812152419502e-01  1.6700165653310040e-01  4.2917245892145223e-01  2.7120438556709231e-01  5.6155005397684199e-01  9.7696038554957329e-02  3.4594750641640158e-02  1.0973831505585573e-01  5.0325283101569807e-01  5.0323707159257069e-01  5.8443707611377860e-01  7.7624284148193767e-01  7.9490413027828843e-01  3.2484155363509258e-02  5.4546113460513057e-01  5.1843162914983087e-01  5.4545715454316523e-01  4.6891036831025273e-01  6.6168960643767663e-02  2.3595989154490554e-01  2.0124534834806071e-01  4.5960511752930006e-01  3.7183053183728376e-01  4.0613962334942966e-01  7.6856965839211061e-02  1.4399947273238087e-01  2.9400252514766856e-01  -5.1358493934294881e-10  3.0988826588031182e-01  2.0695054419477280e-01  3.8183963667341408e-01  2.4073260947848743e-01  3.2844584258843451e-01  9.6163856675533843e-02  7.1136603057531034e-01  1.3843164959177715e-01  6.6706000463027881e-01  4.5488860870036002e-01  3.6735660643565243e-01  5.6400242124832989e-01  2.4812862849902739e-01  4.6166848939939570e-01  7.2045448813624724e-01  2.2482518423742860e-02  2.6757197591358375e-02  2.8496110617331410e-01  4.1655700635062387e-01  1.9203935810235698e-01  6.3363671585670989e-01  1.1865071327936658e-01  1.5335366529001110e-01  3.2668846280312230e-01  5.1998217755545514e-02  5.3123117868316139e-01  5.7784142427187535e-01  4.9305170280621269e-01  4.0444808368128393e-01  1.1072569061801114e+00  5.3692925604219699e-01  9.5083522986351021e-01  5.3741469551013044e-01  2.3798411917745271e-01  2.6467303679972271e-01  2.8368434743667698e-01  4.2948779927980374e-01  4.1950081229723246e-01  1.5291381366860163e-01  3.3190391285547133e-01  3.5213787602066665e-01  3.7090791234878573e-01  2.8513629430714266e-01  1.6707048773364858e-01  4.9826806445881888e-01  3.1520824877243470e-01  3.7396140247944193e-01  4.6031740721287534e-01  1.9847141496606902e-01  4.5944033867630774e-01  4.7984213260807251e-01  5.5685735732203723e-01  3.8707599991988423e-01  7.9175181061693545e-01  7.2185054143274219e-01  4.0514657364028200e-01  5.2417239974269791e-01  5.2439212756224463e-01  2.0055465013000306e-01  1.8142370418849238e-01  1.1966114540654807e-01  1.0997122146512045e-01  2.4059457359338624e-01  2.4166013851855339e-01  1.0832580942118795e-01  2.4375414544067910e-02  4.6011255984102939e-01  4.1558026570490708e-01  5.3676123686304400e-01  5.4084602151702110e-01  5.3880525559313852e-01  6.5504587571807349e-01  8.0495973687650046e-01  3.2743115176864312e-01  5.0168323996389697e-01  5.0118291471782550e-01  3.7468261808883374e-01  1.5563654641982366e-01  6.5084267592453240e-02  6.2475324248853790e-02  2.7353959680705803e-01  3.3945578434967377e-01  1.5954804338942527e-01  2.1007069949065951e-02  1.6959638323462320e-01  2.8780910861788078e-01  4.3819180625625004e-01  2.5253162550512026e-01  6.0154947497001254e-01  5.5081775864987692e-01  5.4010222231128968e-01  2.2816239300084792e-02  4.4713007003366764e-02  5.9909301189092670e-02  8.2339290257906123e-02  9.7459987769472678e-02  4.2272514019825048e-02  2.9423725564703290e-01  1.8672819172318542e-01  4.4870732601977142e-01  4.7862756364435444e-01  4.7349509598140815e-01  1.5008903024968348e-01  2.6853857722137581e-01  5.3130748772187826e-02  2.1713400772277514e-01  2.0345119018290833e-01  3.1908909780034111e-01  1.2640756336602527e-01  1.2204481005013801e-01  9.4074175047100944e-02  4.8659458427481561e-01  7.3788154888209645e-01  4.9162263956937008e-01  4.9726624022721616e-01  5.7035874609580994e-01  3.2014894296826979e-01  4.3678704803528040e-01  3.5088116696314142e-01  2.9193943327244798e-01  2.3111794146453493e-01  2.5276664879054123e-01  5.4654716217214749e-01  5.3148689366751134e-01  5.1034279141630468e-01  1.1326696028696831e-01  1.7928521421755206e-02  5.0470022761335764e-01  5.1598102508631343e-10  5.3246401027597146e-01  1.9888141167551177e-01  4.7026417925001074e-01  7.0866156386028345e-01  5.1246249465779570e-01  5.1651313610269600e-01  2.2015903836247336e-01  4.1884212036625779e-01  1.3261048409696443e+00  2.2102123746652483e-01  3.1079298874723915e-01  3.3317931085611763e-01  1.6594161442748990e-02  5.2368172616773012e-01  1.8436592303581520e-01  2.0722883693179933e-01  2.7771823592877182e-01  3.6548814166317806e-01  1.4276266550231301e-01  2.9473212555317957e-01  3.8815268538002123e-01  3.6953876744021941e-01  3.9092310972839422e-01  8.0216055861470972e-02  8.0290969957775224e-02  1.3673336327404395e-01  9.2959376941715424e-02  5.1635957895745521e-01  8.0459797241427183e-02  1.6047482499049509e-01  4.4675627451570166e-01  3.6075133663680287e-01  3.5453321674677352e-01  5.5762077759770101e-01  1.9871834695477159e-01  6.9293389564982899e-01  5.4259821482979997e-01  4.1347353010496235e-01  1.4381606481618245e-01  5.8257775897576314e-01  7.5879938532524382e-01  -3.7369165748589096e-10  3.0540595316179703e-01  5.9129117617114502e-01  7.7040018557440526e-01  4.2166441824759815e-01  4.9471086238923895e-01  2.3369338102030388e-01  6.6473791476951080e-02  3.2629563824143787e-01  5.3986350355988755e-01  9.0679497828750355e-01  -2.7149967290671652e-10  -2.5373171206374002e-10  9.2255281781641019e-01  1.1033737950904905e-01  3.8881129465182945e-01  5.6420032148149957e-01  2.1818254283401611e-01  7.6519167878047889e-01  1.6018698479044895e-02  2.7849885454987311e-01  4.4252800748208893e-01  2.5224702455348286e-01  2.5271570542063437e-01  3.4021114291064541e-01  1.8279284565308918e-01  9.6357772812977538e-01  4.9704112287180233e-02  3.0063276761613011e-01  5.5479395909354370e-02  5.5509264866947539e-01  4.0253265833722690e-01  8.6465063932228581e-01  4.1632781839177124e-01  8.9642085907756752e-01  3.0288450793489441e-01  5.4933589509308456e-01  3.1758830765167367e-01  5.1913299276178759e-01  5.4412498927355823e-01  4.1047739796413969e-02  5.4571095449905827e-01  6.1144745832072334e-01  4.5118028835037494e-01  9.9874319778833071e-02  2.3162535574032633e-01  1.0674952297554802e-01  2.3451832988927385e-01  2.6239135360771471e-01  4.8873496356503043e-01  5.9838914283657685e-01  6.4592291082388276e-01  6.0673842829425662e-01  4.4572247211820798e-01  1.5251969493976500e-01  1.3603364757762101e-01  3.1703793793806334e-02  4.7084640658327642e-01  4.6506437575844140e-01  3.8161258444760376e-01  3.7269703700833401e-01  3.5342775597614090e-01  2.5623262403142444e-01  1.6472811975333410e-01  5.5542149982672005e-02  1.9037952837022096e-01  4.9695106924112720e-01  4.7417350826866128e-01  1.2392178524740023e-01  1.0596985615339551e+00  6.7079039900555470e-02  1.2539778591545356e-02  3.4940703462775266e-02  4.0684396827671568e-02  8.2902647973911470e-01  4.6645671555081336e-01  1.8478746326930914e-01  1.2995502488644375e-01  6.2035733190681577e-02  7.2381968491978610e-01  2.6026580040520192e-01  3.1911807109561785e-01  2.2975759862132272e-01  1.8139547851508281e-01  2.0605425559836280e-01  4.2833955500510384e-01  1.6200929191621541e-01  1.5747607067177899e-01  3.8467479467377180e-01  3.7831880238822246e-01  1.2816936158963692e-02  1.4397121856261297e-02  7.1890246187159867e-01  4.8831747093295419e-01  4.5636200024768853e-01  4.0672673960284722e-01  4.1920547903900873e-01  1.8028113969247636e-01  1.2919748275460433e-01  1.0632949629974010e-01  2.0625651537212172e-01  8.1029587381553539e-02  5.8570317309728637e-01  1.1445190755320178e-01  1.2050525018817741e-01  3.5841767976181788e-01  1.4815176305717070e-01  1.7118213346787159e-01  3.9437778044067329e-01  5.5790568110478056e-01  7.3857090889632437e-01  4.6067671935115406e-02  4.0267701413092788e-01  2.0612825035274340e-01  3.0692447852975613e-01  3.4076020303927111e-02  2.3206649586322195e-01  6.5194089720532900e-01  3.6039723897525411e-01  5.7332861411658242e-01  1.9464249124128855e-01  4.5058647357951603e-01  5.7098098143097731e-01  5.5973614894393853e-01  4.6346608163540048e-01  3.4021964549892503e-01  4.2787174158767488e-01  3.4087230337662611e-01  3.3824314683195489e-01  1.4596103754800698e+00  1.2687771256875492e-02  2.7977297046399291e-01  6.7775579004709235e-02  4.2866024679657616e-01  9.8780749443241819e-02  1.0982850524065269e-01  9.6862980793453887e-02  8.6978293322844111e-02  2.1950059170647018e-01  1.5550625702592819e-01  1.6971839686145376e-01  1.7445093161333178e-01  7.3251997451243833e-01  4.1801428357587250e-01  4.9783722638173666e-01  6.9393061505282216e-01  5.2801218184609491e-02  2.5020734023389707e-01  4.8369354620671801e-01  3.8422975120732172e-01  7.9204581407128516e-01  5.2117293318666102e-01  3.9887313559367804e-01  1.3480823003743858e-01  4.7272547515783281e-01  4.0118683146050327e-01  4.8067100000004342e-01  2.2639130532776680e-01  9.8192394205623468e-01  3.3058568935358928e-01  4.2841064286183483e-01  5.3969011388114344e-02  2.4100229035500945e-01  5.3930433787370302e-01  7.0009284841896147e-01  2.1912593055485854e-01  5.3986063026815712e-01  5.0913891063745209e-01  5.5024706894336928e-01  5.4102945247885215e-01  5.2626359301461345e-01  5.5296059959115740e-01  5.4394949542306237e-01  5.2849220471511205e-01  4.2542905925520197e-01  8.3907263020531242e-01  2.1408443858021706e-01  1.4452854288207484e-01  2.9355219606942451e-01  1.4927148317146163e-01  2.8877044641474447e-01  2.6446807670969202e-01  2.6683521300838825e-01  3.5376579867881935e-01  1.6408624486366549e-01  2.7414908102330127e-01  7.2452787650277684e-02  9.1780612397518024e-01  5.5518895171959526e-01  3.2068172671457978e-01  3.0418103274337338e-01  7.5284898047641324e-01  4.9586834528359897e-01  1.9077322478098446e-01  1.6986116635096998e-01  5.9376564680663690e-01  1.5917762489886123e-01  1.1126157989948077e-01  7.4742295865643582e-01  5.4967392941123061e-01  1.8270288895566789e-01  1.9277244338213004e-01  2.1326933096888354e-01  4.9164110513752440e-01  1.2270047137169351e-01  4.6253612874408989e-01  4.3980318192390878e-02  5.5418909266328524e-02  2.8261121283977381e-01  2.4900641450777664e-01  2.9586991143657607e-02  2.6759872195029469e-02  1.1869830902842136e-02  1.3670209089278074e-01  2.0914924489489894e-01  3.7256885240327670e-01  3.7806633080926855e-01  3.8484747777180967e-01  4.8507482134223950e-01  2.5226777624034813e-01  3.5069236014894656e-01  3.9890519397001817e-01  4.1239077224168508e-01  4.2673465555502593e-01  4.3241816252513582e-01  1.1538818049388739e-02  2.5995481828043461e-02  3.7806776797083852e-01  7.7803947020363945e-02  2.9933533008388202e-02  4.6217125943725129e-01  3.1717012961374924e-01  4.0471871228074918e-01  1.0927443421870037e-01  1.2707202124643718e-01  5.1637884261376399e-01  5.4037086332883733e-01  5.4906224328705422e-01  4.0509851447095563e-01  6.8810496648319963e-01  3.9497462725821930e-01  4.4434273160256071e-01  3.3105910744002226e-01  3.4123439244159975e-01  2.8377742845910231e-01  2.7437252523757477e-01  2.6418255063797991e-01  3.3712361123110707e-01  2.4466127729277437e-01  2.5292828275645673e-02  3.1445938990663508e-01  4.4792238077764468e-01  5.2262785959582347e-01  6.3504599989257926e-01  5.9225527179984250e-01  5.4654907263802555e-01  5.4163634885868350e-01  5.3438224066964901e-01  5.3166431745782827e-01  5.1248367071073020e-01  5.0198678024601895e-01  1.1060433820502857e-01  3.0607042036689064e-01  3.9217539327944489e-01  5.3414877552767681e-01  5.2675882493318205e-01  5.1502736180767394e-01  2.5143340782768164e-01  1.6431693740441861e-01  6.6266671719499293e-02  5.4842498859695089e-02  7.6652567210803185e-02  2.9559730532077166e-01  3.4510532812540839e-01  3.2833297040890197e-01  5.3924655596715210e-01  2.7183225146324458e-01  3.5894102180919168e-01  1.1581326059771649e-02  3.6310725977245682e-02  3.4012288541802055e-01  2.5351927441965766e-01  2.3188618314348469e-01  1.4521623950714627e-01  3.5967634556074357e-01  1.4013365969724362e-01  4.6964960126279159e-01  2.5267985898904494e-01  4.6952933088226256e-01  9.7291506989811028e-03  4.0374106157239176e-01  5.4533495249367880e-01  5.4392539530370909e-01  5.4500391510922841e-01  8.5397239379771328e-01  5.9137579560636810e-01  5.6344499218454114e-01  8.4616367555459748e-01  4.9044612845970109e-01  4.5000369340567725e-01  5.2267331882009049e-01  5.1443873667926809e-01  5.3041170216899680e-01  5.1217881291022427e-01  5.2983329467123619e-01  4.9415935643448322e-01  3.8135316973679978e-01  3.1851320936992000e-01  1.8605660659492751e-01  7.9310377215702749e-02  2.9518171457105924e-01  5.5304986126624142e-02  7.6768280368126163e-02  1.5425546091353667e-01  6.0769266161948984e-02  4.4894977542491471e-01  2.4235646511474246e-01  3.2757246897282899e-01  5.6686486750317910e-01  2.7567861782245184e-01  2.8262723927623690e-01  3.2818678743148022e-01  2.1095069485775453e-01  2.2500571462764951e-01  9.3935002507654575e-02  5.3918785352085086e-01  2.4229456122988585e-01  2.4754818361991685e-01  1.5915344791185623e-01  9.8236769126038792e-02  1.5744441433155176e-01  4.1062232641082841e-01  4.8848057306792181e-01  1.1868773948442439e-01  1.6968031064714720e-01  2.8215749510793325e-01  8.7606836286999737e-02  2.2453669048592700e-01  4.3767294922944533e-01  3.6057314157671039e-01  3.8841048732827721e-01  9.6304935091085087e-01  4.0163277263554570e-01  1.9219582173837987e-01  5.0025001421923487e-01  4.4913725045082058e-02  3.6425884047365020e-02  3.7121842699902902e-01  4.8268645640107888e-01  2.6626488829549710e-01  1.0232544177195906e+00  3.0349009597997229e-01  8.8167888445635154e-02  9.1456688946670209e-02  8.2701752240853532e-01  3.6940315039223563e-02  6.5118564189280359e-01  4.9519853048087309e-01  4.7590770427126161e-01  4.1225314683839903e-01  5.1450156646189966e-02  1.2612745001011330e-01  3.6201712498706029e-01  1.1679705856204670e-01  1.6037409407856915e-01  1.1418089281568795e-01  7.6607405820534352e-02  1.0288513608398496e-02  5.5584904226794296e-01  3.9639361987249888e-01  2.0092307110920285e-01  4.3702019718013579e-01  4.0101696603789821e-01  1.9720215169262054e-01  1.7781735845188126e-01  6.0447239166977329e-01  9.4144014422927219e-02  6.2911083936399015e-01  2.0419209855585332e-01  8.8015938165965701e-02  4.5861999928928443e-01  7.5414564724100031e-01  5.0506845399222111e-01  1.9459181125416325e-01  3.4345347664531295e-01  2.1253990776027482e-01  5.0031976775638043e-01  2.7269328339381615e-01  3.9474621528247761e-01  4.7556121725996264e-01  5.0766422780611664e-01  1.0361922303264710e-01  4.7890044857118419e-01  8.2917902872900170e-02  3.0922662197879869e-01  4.1477847387189770e-01  2.0228622068643107e-01  1.2423681237718261e-01  3.6208413020821467e-01  3.1895308890582469e-01  1.3008824659718550e+00  1.4458879768048705e-01  5.0192953036817367e-01  2.9937070884398370e-01  3.1148691414543955e-01  3.2732054340277367e-01  1.7141583025744142e-01  2.3109020342237291e-01  1.2982773641771789e-01  1.1618097924169329e-01  3.4302584265881494e-02  2.2289401096950148e-01  7.0403631881490347e-02  7.3598110895975011e-01  7.1681184738943526e-01  2.1024006699038900e-01  9.6418016553986949e-02  2.8890621511677927e-01  8.3267442743304410e-01  5.5060989363609991e-01  2.0779027878582412e-01  5.8525718217193068e-01  6.2031001540299269e-01  5.5377930278796750e-01  7.0453744850810254e-02  5.7315268620173976e-01  2.7203736559279251e-01  5.2344633420841880e-01  3.0010777153050039e-01  1.1491873228718884e-01  4.0935892294155285e-01  9.7663504056532813e-01  5.5351966085705295e-01  5.4271044163228332e-01  3.2636665825941949e-02  4.5859935856303691e-01  1.1943770823986484e-01  3.1057425626340529e-01  1.8199108464979005e-01  1.0266918913774338e-01  -2.7149967290671652e-10  3.5105934323876398e-01  5.1499263000035056e-01  3.5086325106885136e-01  3.4158589387039573e-01  4.2930715572160261e-01  1.7602130850436470e-01  4.8990574963752637e-01  1.1677854824047542e-02  3.7575799767588786e-01  4.3646713399837167e-02  3.7937921303779609e-01  7.7260759151049985e-01  7.3680624253355498e-01  9.7225995534512333e-02  4.1441692495023791e-01  2.5721411558593238e-01  2.3855695744915964e-01  2.3182423195883439e-01  2.2503913196993711e-01  2.4185248248824193e-01  1.0528502234892627e-01  4.4293835113846308e-01  4.6962773553323706e-01  3.8188028344068065e-01  4.5348319278084226e-01  4.2939571399240151e-01  2.6187677208420307e-01  2.4877648136211503e-01  4.5317371487160540e-01  3.4823242788560094e-01  1.0368514139461138e-01  4.0253543178124856e-01  4.9510487826503330e-01  5.0840984808195655e-01  4.7191726161649494e-01  -2.2521630708468101e-10  6.0203148001603413e-01  3.0185834061127387e-01  2.9331098152510982e-01  4.3415473296671042e-01  2.9255215213831348e-01  4.6559600489945063e-01  1.5024904263940903e-01  4.2847746101818007e-01  3.4564916752443831e-01  5.0345680952602834e-01  6.1983260369006243e-01  6.0322478911473881e-02  3.6866763641521338e-01  4.3710374354481485e-01  5.2631054028165314e-01  2.2916902292612021e-01  1.7883903675684959e-01  5.4718053459568061e-01  4.5559583164703782e-01  4.5720719780220126e-01  5.3907683150218755e-01  1.3573395722885229e-02  1.3791749587278490e-01  2.0747669704492801e-02  2.2584078195831799e-02  9.5094243904091796e-03  5.2679527423388517e-01  1.0479526729066156e-01  6.7897306373083680e-02  3.6606296204849942e-01  2.8654781798171791e-01  1.4886980545359782e-01  1.3588272691896511e-01  1.9373534647311805e-01  4.7269535104051597e-01  3.2417567896606364e-01  3.2976684645276177e-01  5.1701349571482635e-01  2.7454631430192955e-01  3.1261087986065544e-01  3.6397011251793782e-01  3.6053000999867568e-01  4.4226509806660136e-01  5.3838858957709590e-01  5.4142297948078288e-01  2.9059376235520967e-01  7.0298864505112324e-01  5.3846738538756012e-01  7.6441585659947786e-01  7.8127854889852144e-01  5.2789450321905074e-01  3.4182594988683707e-01  5.4043109853610882e-01  4.6258061057276206e-01  5.1598102508631343e-10  1.2732261123938182e+00  1.0950635625257465e+00  1.9919622040293822e-01  1.8954893314058921e-01  2.1066617358914844e-01  8.9616454999801115e-02  7.6798912196250624e-01  5.8953470432263644e-01  7.3703745799584275e-01  7.0179980545623899e-01  7.6723393873472390e-01  7.5818100993807369e-01  8.2992026921400897e-02  3.5516631543117932e-02  5.1780924727740474e-01  2.1393963682816505e-01  2.0271000109894186e-01  1.9925788144945464e-01  2.7134490395045135e-01  3.1935244841757277e-01  1.8563221881412625e-01  1.2262655482709311e-01  5.1759938659534743e-01  1.3433949070916362e-01  8.8658890941039625e-02  8.4289516960258257e-02  5.6034733982780238e-01  5.8031688977975027e-01  1.5087270373023073e-01  4.4601256664488464e-01  1.4080647388454035e-01  3.2054822275862838e-01  2.4526237492912095e-01  4.1016101293307383e-01  5.2699388622656507e-01  1.0322258058548026e-01  5.2683273978985179e-01  2.9829347433481157e-01  5.2923361531390933e-01  5.6521848451037049e-01  1.6261066433029622e-01  3.1204