<?xml version="1.0"?>
<VTKFile type="UnstructuredGrid"  version="0.1"  >
<UnstructuredGrid>
<Piece  NumberOfPoints="2446" NumberOfCells="4585">
<Points>
<DataArray  type="Float64"  NumberOfComponents="3"  format="ascii">0 0.41 0  0 0 0  2.2 0 0  2.2 0.41 0  0.2404508497187474 0.2293892626146237 0  0.25 0.2 0  0.2404508497187474 0.1706107373853764 0  0.2154508497187474 0.1524471741852423 0  0.1845491502812526 0.1524471741852423 0  0.1595491502812526 0.1706107373853764 0  0.15 0.2 0  0.1595491502812526 0.2293892626146237 0  0.1845491502812527 0.2475528258147577 0  0.2154508497187474 0.2475528258147577 0  1.1 0 0  1.1 0.41 0  0 0.205 0  0.55 0 0  0.55 0.41 0  0.275 0 0  0.275 0.41 0  1.65 0.41 0  1.65 0 0  0.8250000000000001 0.41 0  0.8250000000000001 0 0  1.375 0 0  1.375 0.41 0  1.925 0 0  1.925 0.41 0  1.5125 0.205 0  1.7875 0.205 0  0.6875 0.205 0  0.9625000000000001 0.205 0  1.2375 0.205 0  2.2 0.205 0  0.4687002074688797 0.2068568464730291 0  1.99375 0.2152743902439024 0  2.0625 0 0  2.0625 0.41 0  2.2 0.3075 0  0.4125 0 0  0.4125 0.41 0  1.7875 0.41 0  1.375 0.1486128048780488 0  1.5125 0 0  1.7875 0 0  1.5125 0.41 0  0.8250000000000001 0.2613871951219511 0  0.9625000000000001 0.41 0  0.9625000000000001 0 0  0.6875 0.41 0  0.6875 0 0  0.1375 0 0  0.1375 0.41 0  1.2375 0 0  1.1 0.1486128048780487 0  1.2375 0.41 0  1.65 0.1486128048780487 0  1.126715909090909 0.2793064024390244 0  1.676715909090909 0.2793064024390244 0  0.8517159090909092 0.1306935975609756 0  1.348284090909091 0.2793064024390244 0  0.34375 0.3032389320646208 0  1.894702181800738 0.1282910975492754 0  2.092797818199262 0.1282910975492754 0  1.85625 0.3075 0  0.61875 0.3075 0  0.61875 0.1025 0  0.3648540804333487 0.1240075933101478 0  0 0.3075 0  0 0.1025 0  2.099172119769978 0.25625 0  0.48125 0.09238439620688085 0  0.5781001037344399 0.2059284232365146 0  0.48125 0.3196743479159776 0  0.7265881057911006 0.3055240343720796 0  1.99375 0.08395950269330846 0  1.459960956013612 0.3075 0  1.569025960719943 0.2986889805672169 0  0.75625 0.08213100772579164 0  1.03125 0.3278689922742084 0  0.923871252904788 0.3078247185783941 0  1.959375 0.3126371951219512 0  1.749222215368287 0.1025 0  1.275777784631713 0.1025 0  2.2 0.1025 0  1.225938124459196 0.3075 0  1.550777784631713 0.1025 0  1.000777784631713 0.1025 0  1.44375 0.07430640243902442 0  1.16875 0.07430640243902437 0  1.899250267340833 0.2229966846119207 0  0.1020898364287272 0.3140258291809757 0  1.766482954545455 0.2934032012195123 0  0.3405058858996321 0.2119987970531874 0  0.7710785630958338 0.1710968191298857 0  1.046078563095834 0.2389031808701144 0  0.2 0.3400647632937836 0  1.421109702350723 0.2261157654379721 0  0.2800464974185557 0.08982544815605742 0  0.098916018031319 0.09171660955420841 0  2.13125 0 0  2.118919042110979 0.3422084711244843 0  1.30625 0.41 0  0.89375 0 0  1.597888256393107 0.2173787389261347 0  0.20625 0 0  1.829299675393195 0.07400700849299596 0  1.71875 0.41 0  1.16875 0.41 0  2.038220665644273 0.332420740103091 0  0.34375 0 0  0.417496017710808 0.2696595573092803 0  0.2 0.07687845740457822 0  0.9295982307099278 0.1343158415898188 0  0.07390688010811153 0.1697064032433452 0  0.5238366813727013 0.2578302467013575 0  0.05452951551825875 0.25625 0  0.5229630068078351 0.1548816096928243 0  1.452769549894695 0.1548122580621249 0  1.369219062229598 0.07430640243902442 0  1.30625 0 0  0.8504409521244898 0.3356935975609756 0  0.8821881244591965 0.205 0  1.720943423819132 0.1714577452753128 0  1.157188124459196 0.205 0  1.094219062229598 0.07430640243902437 0  1.03125 0 0  1.304056576180868 0.1714577452753128 0  1.67579304192913 0.07430640243902437 0  0.2751941921308361 0.3346083473122598 0  1.209670467133757 0.1362100266964769 0  1.025335513626278 0.1700681449722324 0  0.7562500000000001 0.41 0  1.58125 0 0  0.7567170593862014 0.2409196493502535 0  0.6926714215682891 0.1272249611432207 0  0.4139715849905988 0.3397932387114203 0  0.9840787304190477 0.2717749043358119 0  0.06875000000000001 0.41 0  0 0.35875 0  0.9281250000000001 0.06276726142697993 0  0.5507396469029935 0.3219409231578227 0  0.5504468037989405 0.09136885600634273 0  1.58125 0.41 0  1.631724228912893 0.3381867502687533 0  1.825608881788174 0.14499488549201 0  1.85625 0 0  1.44375 0 0  1.44375 0.41 0  1.85625 0.41 0  2.13125 0.41 0  0.7562500000000001 0 0  0.89375 0.41 0  0.4812500000000001 0 0  0.34375 0.41 0  0.4812500000000001 0.41 0  0.20625 0.41 0  0.06875000000000001 0 0  1.16875 0 0  0.61875 0 0  0.61875 0.41 0  1.03125 0.41 0  1.71875 0 0  1.99375 0 0  1.99375 0.41 0  1.340625 0.3489494290853124 0  1.134375 0.3489494290853123 0  1.700180620188976 0.3438659752031281 0  2.135782184673599 0.07126652247502523 0  1.668441847249787 0.2129203728327609 0  1.295782514339747 0.2378437748815763 0  0.8233075729931248 0.06842334294821524 0  1.409375 0.3520314716057996 0  0.403505597322782 0.182067236678212 0  0.378125 0.05794951541303489 0  0.3043468223249023 0.1518321115979534 0  2.129248544730567 0.1906135162504124 0  2.060771381434487 0.1989445750470348 0  2.013252586573865 0.1496169464686054 0  1.942766402200229 0.1734448904596831 0  1.895522487186454 0.06076163953489683 0  2.069553871656643 0.06605731020975725 0  1.274680914880868 0.3520219391081363 0  1.614713220494657 0.09473434380863296 0  0.7899021319497519 0.3149123934144827 0  0.69518737419149 0.0634051089053758 0  0.2971740475496061 0.2592172353407536 0  1.72990325744076 0.2380068107952482 0  1.356580098625191 0.2120393231351682 0  2.034370752044885 0.2668681600792073 0  1.51768709249349 0.3426260931494756 0  1.561883724969884 0.1650446847858835 0  1.197344062229598 0.2523725417393646 0  1.804085235518364 0.3468178408964637 0  1.817887819205233 0.2589243285818559 0  1.905897727272727 0.3485060975609756 0  0.6719798073392919 0.2688965171178177 0  0 0.05125 0  0.653125 0.35875 0  0.6396896119294488 0.1627615407790282 0  0.4274150154087412 0.1242548552168279 0  1.192836486056382 0.3562350748565544 0  0.8279124365364005 0.183856489168822 0  1.097485222388854 0.2083571153401724 0  1.28257088594801 0.2944411014911587 0  1.474860187679412 0.2504218616229368 0  1.406767003493824 0.2829282258560709 0  0.446875 0.04619219810344041 0  0.515625 0.04585361801037557 0  0.592043440706648 0.05125 0  1.845656689180403 0.1998310418452388 0  2.144958525570388 0.2909790873294231 0  0.6171090763650112 0.2492366900333857 0  2.2 0.15375 0  0.5145586920831158 0.3648371739579888 0  1.57794966442982 0.3540357145964566 0  0.721875 0.3633107922168974 0  0.0496154796471391 0.333125 0  0.5843750000000001 0.3662560860076676 0  0.5810878747760798 0.1474002776121195 0  1.508991196088596 0.1421783375065625 0  0.8840670607017558 0.2640994375393898 0  0.09776612425612034 0.2204896805326566 0  1.50436820029908 0.06143401634903343 0  1.223857000523521 0.0823554862453532 0  1.153316824384777 0.1289850171317837 0  2.148922302309752 0.1258841779285271 0  0.309375 0.04312325590431198 0  1.621993280276081 0.2841214267927899 0  1.550118654119087 0.2461998729100966 0  1.327182649291491 0.1216967252533594 0  1.051977450479407 0.1221382572915816 0  1.753125 0.04556020050186112 0  1.271875 0.04556020050186116 0  0.9816084133102366 0.05126138213476004 0  1.039051841454368 0.0572224914831029 0  0.9719230514536006 0.3480477870845102 0  1.94956388244759 0.1180512551534177 0  1.949997712993411 0.04965831614304109 0  1.771961817615021 0.1530278789497521 0  1.909246823951428 0.2812757146784527 0  0.2459536687882397 0.04668633953831142 0  1.948575539857022 0.2445328248721197 0  1.697271520964565 0.1233917627620729 0  0.7964897648514618 0.1211426571931604 0  1.065625 0.3689344961371042 0  1.085849084308977 0.3170853572226867 0  0.4702981435440001 0.260434880697798 0  1.577403511714593 0.05463601888079143 0  0.05622663515370135 0.05493816910862376 0  0.3267207591099919 0.3566194660323104 0  0.9003051618565143 0.3564049499960621 0  1.751571320346033 0.3651102912045228 0  0.1583785085108421 0.2994699345738728 0  0.1455283439499995 0.3542795598723423 0  2.2 0.35875 0  0.2347662494194072 0.298325008655211 0  0.1527284455616188 0.1065771775690181 0  0.1382139529076665 0.05427454456341477 0  0.8749341636311069 0.05110114999892954 0  0.643661668713109 0.05693499781019222 0  1.466879772203159 0.3611261772912453 0  1.990280163552011 0.3564754268533217 0  1.17471064520912 0.2990917256188288 0  0.5202693090594349 0.206382495511728 0  0 0.25625 0  2.2 0.25625 0  2.2 0.05125 0  0 0.15375 0  1.853978576207987 0.35875 0  0.9787513713939683 0.1487523696999336 0  0.240625 0.3722153812029779 0  1.515638456102889 0.2882700110184686 0  0.09048297387599738 0.3637717362208066 0  2.150453692751374 0.2387066338105111 0  1.323782677156475 0.04897634338873398 0  0.8074131292871642 0.3624701995505916 0  1.409375 0.03715320121951221 0  1.406484531114799 0.1087852750766809 0  1.134375 0.03715320121951218 0  1.627401732573545 0.04552157221025036 0  0.1170173172005315 0.1427610859166811 0  2.045405893604797 0.1105340662939892 0  1.255408269734577 0.1577307500159216 0  2.028125 0.03707597992059326 0  0.4743610090857199 0.1421513964721819 0  0.9354010469015898 0.250631300585664 0  0.04420832937638274 0.128125 0  0.8922386349349938 0.0992956419364831 0  0.1197849154434487 0.2663398672460083 0  1.248258025468107 0.2565907092181813 0  0.3746885856929528 0.370723531618974 0  1.203125 0.0366132337404304 0  0.5724622277005015 0.2751253816079333 0  0.3365425205162783 0.08395777655057959 0  2.072662025974815 0.2975086504196739 0  0.4581080832182547 0.3648371739579888 0  0.3874522734668214 0.2295447548840689 0  0.7827853612484443 0.04106550386289586 0  1.887722846421017 0.1760882698830035 0  1.472640588990488 0.1118278026240017 0  1.865937103925594 0.2604137786483804 0  1.463913572748262 0.2030442564990043 0  1.376426316059077 0.3186741374914345 0  0.6641993820150034 0.3141688596240831 0  0.2943117490824315 0.2130987422685822 0  0.3478153998082709 0.1666571081082676 0  0.3427990510599805 0.2575950027870776 0  0.7997118993855807 0.2216171933356366 0  
[...]
<PointData  Scalars="f_37"> 
<DataArray  type="Float64"  Name="f_37"  format="ascii">5.5721948191215831e-01  5.9007638933858952e-01  -3.4876019323338962e-10  -5.4104042969922273e-10  -3.8266844534717892e-01  -2.4304453280009292e-01  -4.8810195427313924e-01  -7.5224875274027592e-01  -6.8272769232353026e-01  4.7304639826258249e-01  2.1176715181433909e+00  4.9065176264562776e-01  -1.0788354315931521e+00  -6.0550621586496989e-01  2.4298919771571670e-01  2.4227886929374948e-01  8.9427728993099598e-01  3.5126290807777766e-01  3.4989348461384079e-01  2.6971960344284274e-01  2.9641218312627404e-01  1.2122544620887972e-01  1.2191970794019719e-01  3.0182764823699432e-01  3.0231152214612778e-01  1.8103276058977935e-01  1.8159680405886228e-01  5.9547446656339306e-02  5.9735673826057538e-02  1.5140548160358325e-01  9.0751633169893722e-02  3.3417826436604225e-01  2.7251607205228195e-01  2.1192071795500830e-01  -1.5755433350506555e-10  4.2386602927175143e-01  4.5324515291611835e-02  2.8775984356306815e-02  3.1073911515674953e-02  -1.7226032485024441e-10  2.9370429361671263e-01  3.0434968759427095e-01  9.1411437534730647e-02  1.8165461361279112e-01  1.5138093486770998e-01  9.1178356280181019e-02  1.5247679333989547e-01  3.0275397202414234e-01  2.7337071085833187e-01  2.7244117358118664e-01  3.3092357299041714e-01  3.3089522689731787e-01  4.9141399012666509e-01  4.6980807417695503e-01  2.1203970484202556e-01  2.4218901332652884e-01  2.1256610369772572e-01  1.2111698262932666e-01  2.3624782590070323e-01  1.1523687252768623e-01  2.9696396585685886e-01  1.8749369215739811e-01  2.2971052315808776e-01  6.7126180906438418e-02  2.3516214745246764e-02  7.5595757669642022e-02  3.4738492687580647e-01  3.4793119465526851e-01  2.9271649054141424e-01  6.5275904384451156e-01  6.8857830929997144e-01  2.2133870382427624e-02  3.6835009182591305e-01  3.6446503698821336e-01  3.6541814166483744e-01  3.2421779358638586e-01  4.5400562489355790e-02  1.6298941644894563e-01  1.3892743008586111e-01  3.1790619913506785e-01  2.5721023062633180e-01  2.8097780750103180e-01  5.2961562949976108e-02  9.9187892446165743e-02  2.0350810568728997e-01  -6.7083510623226848e-10  2.1448933791004951e-01  1.4296552122350692e-01  2.6407917341265802e-01  1.6646468185907828e-01  2.2707076995164208e-01  6.6149167393697125e-02  5.9250310164747433e-01  9.5322243095291401e-02  2.2106018809026065e-01  3.1491258778303699e-01  2.5413228834362073e-01  2.6034267532774258e-01  1.7152475680545998e-01  4.8753796412639175e-02  6.3041842614856647e-01  1.4876493589943158e-02  1.7749410635165896e-02  1.9623494042293249e-01  2.8761391526228680e-01  1.3259347165249424e-01  3.7145049494491700e-01  8.1525308755116419e-02  1.0482700634217905e-01  2.2592501436198456e-01  3.5543612686812220e-02  2.4780918467874133e-01  4.0818601346640537e-01  2.1735495950234748e-01  2.7976437587475139e-01  1.0251106865869688e+00  3.7953036361922199e-01  8.5021158537003227e-01  3.8161605817596345e-01  1.6454631451317894e-01  1.8285119353765195e-01  1.9694733315675639e-01  2.9682060570049457e-01  2.9022953478409014e-01  1.0543318503629970e-01  2.2957421305574427e-01  2.4352790666989230e-01  2.5648678892989368e-01  1.9724631904523002e-01  1.1546859109460336e-01  1.6320743412090585e-01  2.1802397825219325e-01  2.5866863636228604e-01  3.1864836864722079e-01  1.3650080749628385e-01  3.1801620983919549e-01  3.3228684598009461e-01  3.3200635978647303e-01  2.6775617325485818e-01  5.3957272507415921e-01  5.6952087219168157e-01  2.7997648359602489e-01  3.5889852448799892e-01  3.5997154654698210e-01  1.3589429062713176e-01  1.2517429305038380e-01  8.2319047112831445e-02  7.5071487744876972e-02  1.6628731128942187e-01  1.6613204968265699e-01  7.5156654392011107e-02  1.5815370585884662e-02  3.1814082280265976e-01  2.8702092410429769e-01  3.4188491588632997e-01  2.7484919151054837e-01  3.4166298917376842e-01  3.7491054815522440e-01  5.7157609526991349e-01  2.2627483114943542e-01  3.4439618168380515e-01  3.4310288650975940e-01  2.5723760215962554e-01  1.0627110028408515e-01  4.5626654118111051e-02  4.4530714647552358e-02  1.8888763766347172e-01  2.3450020637791741e-01  1.1007273118148068e-01  1.4107263363712265e-02  1.1701386359784237e-01  1.9906710264548094e-01  3.0329601716647320e-01  1.7421810688039355e-01  4.9164426466398620e-01  2.8337395288425016e-01  -5.6199828910193073e-01  1.5546795262824771e-02  3.0569962419536630e-02  4.1023649675309901e-02  5.6560700600531172e-02  6.6905915943903271e-02  2.8479026246010279e-02  2.0364280464593504e-01  1.2892098624634349e-01  3.1025598278231409e-01  3.3087197050619477e-01  -5.4549606678133011e-01  1.0347370396422183e-01  1.8569940126773218e-01  3.6390278227703840e-02  1.5027574753721901e-01  1.4054340737435439e-01  2.2074615726785188e-01  8.7124627334664542e-02  8.4047604550965660e-02  6.4541243319443026e-02  3.3704028954634552e-01  6.0305513249163190e-01  3.3818791000465181e-01  3.4562951421737587e-01  3.9594166707700357e-01  2.2183121136528397e-01  3.0226334245738662e-01  2.4268042661244985e-01  2.0196262177012803e-01  1.5970504630207444e-01  1.7468604343997193e-01  3.3363223345427212e-01  3.5301731972665829e-01  3.4941804120216713e-01  7.7960270371893417e-02  1.2120615533411427e-02  3.5115724987092228e-01  -1.5755433350506555e-10  3.5283841977524505e-01  1.3690779513435469e-01  3.2480933746780977e-01  5.9274721133420283e-01  3.4938215912246023e-01  3.6052861578894441e-01  1.5217168081678831e-01  2.8971569833792038e-01  1.2440037696680437e+00  1.5340908436977729e-01  2.1491139847396898e-01  2.3041593441984717e-01  1.1226052063678230e-02  2.2452020835601874e-01  1.2724116548174888e-01  1.4312512366491595e-01  1.9217228108129769e-01  2.5278926204666069e-01  9.8218418189197451e-02  2.0438300216939231e-01  2.6851561180184419e-01  2.5563421556609095e-01  2.7029475137445202e-01  5.5064259678729313e-02  5.4914103165314587e-02  9.4188680172708164e-02  6.3995993951307298e-02  2.3758603461244751e-01  5.5332930548727344e-02  1.1072978413593117e-01  3.0920896616929133e-01  2.5008005331947653e-01  2.4535981800513035e-01  4.0080085834635704e-01  1.3688849977987458e-01  5.9717023757444587e-01  2.5344819737178664e-01  2.8615380184072681e-01  9.8262797311657629e-02  3.5254805479158008e-01  4.4142805924085904e-01  -5.4104042969922273e-10  -5.7125246166266387e-02  4.0793414970325381e-01  4.8343359819656051e-01  2.9173666915671492e-01  3.4099408945366549e-01  1.6146604338959752e-01  4.6400062558606084e-02  2.2572483942174174e-01  3.8816675528429484e-01  8.0165024752267711e-01  -4.8926355553231537e-10  -6.8807769049310657e-10  8.2802694869699778e-01  7.6300631230700272e-02  2.6893862838616878e-01  2.9517485321907355e-01  1.5072388028922298e-01  5.3176825866379496e-01  1.0899724716649729e-02  1.9289953527148726e-01  3.0589030064708783e-01  1.7397618400640499e-01  1.7474355350298870e-01  2.3501318289300110e-01  1.2614584815107513e-01  8.9049640941729413e-01  3.3888965695759034e-02  2.0798068014350274e-01  3.7725879256590669e-02  3.9882480963307260e-01  2.7844945860401649e-01  7.7279243281031162e-01  2.8797062492494252e-01  7.8944279504946735e-01  2.0954173972117790e-01  2.8757349454070247e-01  2.1909144831564215e-01  3.6117428010426750e-01  1.9432606436323427e-01  2.7927832530286040e-02  3.4012256766483484e-01  4.6924810051614585e-01  3.1185925511267854e-01  6.8677402516757177e-02  1.6019764887274160e-01  7.3489793195978800e-02  1.6209600298597746e-01  1.8127920452845958e-01  3.3747649329145668e-01  -4.6306509917801197e-01  2.4245248907422962e-01  9.8609429160860615e-02  3.0844903196309598e-01  1.0513480663023830e-01  9.3712769571514420e-02  2.0677918705950087e-02  3.2619904596617211e-01  3.2191959117145819e-01  2.6398204408681480e-01  2.5782382442783786e-01  2.4444437597783461e-01  1.7718046087216466e-01  -5.1968001597738056e-01  3.8009879729852175e-02  1.3144306758142252e-01  3.4571392451174437e-01  3.2844617405780929e-01  8.5354200658227214e-02  9.6822603976198562e-01  4.6084374815857074e-02  8.3844841544371829e-03  2.2992101327138491e-02  2.6918153392893884e-02  5.4900290981676658e-01  3.2224545890714851e-01  1.2790941667732239e-01  8.9400227656009412e-02  4.2639471708346061e-02  4.3508615324210032e-01  1.7992912862678642e-01  2.2073289150400777e-01  1.5882276584162128e-01  1.2523122299435879e-01  1.4332633771237657e-01  2.9543588009752192e-01  1.1313007453000984e-01  1.0864293235381518e-01  2.6401615113467219e-01  2.6126647644200413e-01  8.6293312990822109e-03  9.5831966419091651e-03  5.5443228982051518e-01  3.3766678782683418e-01  3.1585618069265753e-01  2.8136382274148836e-01  2.9002499442661428e-01  1.2442558288606909e-01  8.8635781618850037e-02  7.3092667433175787e-02  1.4245535751402699e-01  5.5929442202308922e-02  4.6771707528686357e-01  -2.6222679245878427e-01  8.3248370951119491e-02  2.4760542030684082e-01  1.0198881124343114e-01  1.1872223659425163e-01  2.7269700011524822e-01  3.4282095516970479e-01  4.2293491336683009e-01  3.1454118311943224e-02  2.7964927179697735e-01  1.4239316962030557e-01  2.1317784819666166e-01  2.3229638692416791e-02  1.6120251507475855e-01  3.6668053414651525e-01  2.4926812631387846e-01  4.3759602752221899e-01  1.3438379219618704e-01  3.1171705345353784e-01  3.3739850689128470e-01  3.7087173271779772e-01  3.2096359052874013e-01  2.3528241379730430e-01  2.9601127614624168e-01  2.3578229490901989e-01  2.3394046853149666e-01  1.3935274241781082e+00  8.6323163570329545e-03  1.9345317148649033e-01  4.6683177651390267e-02  2.9643828060189353e-01  6.7189778746135034e-02  7.5267166177121453e-02  6.7859012645547459e-02  5.9723893655959343e-02  1.5182092266753200e-01  1.0728601514311059e-01  1.1783420635896620e-01  1.2044025689761867e-01  5.8713628847317767e-01  2.8914391797780475e-01  2.1307699618218046e-02  5.5834965812746096e-01  3.5746136336992328e-02  1.7301657374706558e-01  3.3546790908874485e-01  2.6574242813199478e-01  6.8684916998209100e-01  3.5265198419051319e-01  1.2098005900013474e-01  9.2702331014710024e-02  3.2704911512454599e-01  2.7808562475395443e-01  3.3152822742618021e-01  1.5647371185053571e-01  8.9181231732737987e-01  2.2867515721541978e-01  2.9647715977986377e-01  3.6804111293143871e-02  1.6652812289110483e-01  2.7087838079200555e-01  3.8074085283377912e-01  1.5138643733643592e-01  2.7647459518699646e-01  3.5553088582691633e-01  4.0195964399518530e-01  3.7740355339152093e-01  3.7139260204408464e-01  3.0592856953630024e-02  3.7896715430452171e-01  3.7376570428671618e-01  2.9386478720545051e-01  7.2772919421651061e-01  1.4754531131740634e-01  9.9618289637065024e-02  2.0306082598350156e-01  1.0290637579958685e-01  1.9981825510297643e-01  1.8293914317076454e-01  1.8454822856938888e-01  2.4467560568256128e-01  1.1320849730134966e-01  1.8963351312441204e-01  4.9701339098320849e-02  8.3494419052396851e-01  2.7412725832696194e-01  2.2173385679106208e-01  2.1043897241901019e-01  6.6404181738808998e-01  1.8572586360217613e-01  1.3158970954714824e-01  1.1730541119326018e-01  3.6064579118875151e-01  -8.7079277623348661e-02  -3.5269455598759880e-01  6.3312385140045613e-01  3.9925093414981100e-01  1.2591039314326477e-01  1.3310718313167971e-01  1.4746972979928763e-01  3.4073982703692990e-01  8.4039745095637441e-02  3.1974211882765469e-01  3.0061434173033960e-02  3.7977531395299247e-02  1.9570433052499331e-01  -5.8681606921601792e-01  2.0047172373575100e-02  1.8249654699061705e-02  8.0881591501350495e-03  9.4030464128045499e-02  1.4450298417748123e-01  2.5770981491950895e-01  2.6149869595489050e-01  2.6622653808949248e-01  3.3477377123588403e-01  1.7429112534550700e-01  2.4277909747962795e-01  2.7514041436525849e-01  2.8478514110860248e-01  2.9583497198215691e-01  2.9943108204895008e-01  7.7702958346193155e-03  1.7477092275141770e-02  2.6164997848843824e-01  5.3461839978689002e-02  1.9763426646595687e-02  3.1977312761139320e-01  2.1939731761937600e-01  2.7996750778969798e-01  7.5137552850860032e-02  8.7492557177092589e-02  3.6135394682362942e-01  2.4504223039219419e-01  3.1755852257234890e-01  2.8018206425731401e-01  -1.9409581662466552e-01  2.7322027762295764e-01  3.0753045444702765e-01  2.2835578057124270e-01  2.3370805561092986e-01  1.9594034343430636e-01  1.8873204233617361e-01  1.8169139330228265e-01  2.3312411971241473e-01  1.6915555299453258e-01  1.7202196108550179e-02  2.2077545630649448e-01  3.0935590501445315e-01  3.5354594764686198e-01  5.1146246141210383e-01  4.1758756349715753e-01  2.9916144703808623e-01  2.6890114536787085e-01  3.6129909598217719e-01  3.6865019199791138e-01  3.5182439751376648e-01  3.4488379963137994e-01  7.6089467163629354e-02  2.1177043926424202e-01  2.7129059359426516e-01  3.6198478462994749e-01  3.6742089590583527e-01  3.5642820529673114e-01  1.7372884911956701e-01  1.1511554171927664e-01  4.5445073053437507e-02  3.7553407989473812e-02  5.2742264832433515e-02  2.0356476526325709e-01  2.3812541614421573e-01  2.2675560904942185e-01  3.4512088199938601e-01  1.8903298121616055e-01  2.5040434728880218e-01  6.9970928131444484e-03  2.3359488843891101e-02  2.3479881309477302e-01  1.7416630118477103e-01  1.5950427854366853e-01  9.8257919112058251e-02  2.5049847804634257e-01  9.7139713081171211e-02  3.2446638851279697e-01  1.7536236584853795e-01  3.2543932295000244e-01  6.8416953604424268e-03  2.7970469499538220e-01  2.8383807377044801e-01  3.2459104987858628e-01  3.2715487161300716e-01  5.3894876554572069e-01  3.3111438459361953e-01  3.1058901182689835e-01  5.0839655134586925e-01  3.3978781461054108e-01  3.0976400695319106e-01  2.5088516134710337e-01  3.5032922057278798e-01  3.5084477882351239e-01  3.4851618619547775e-01  3.4894969644386759e-01  3.3827004227485435e-01  2.6436348309355245e-01  2.1935003660070207e-01  1.2783619344099142e-01  5.4569354871409417e-02  2.0452674634705573e-01  3.7395326387133582e-02  5.3997927184193349e-02  1.0596260354436440e-01  4.1617424785917935e-02  3.1057470037713769e-01  1.6759042931479304e-01  2.2655836432528170e-01  3.1702991119525681e-01  1.9063040102516204e-01  1.9546145326485764e-01  2.2703460015912774e-01  1.4574582291587854e-01  1.5549741980992546e-01  6.4159607688363970e-02  3.9074946985365105e-01  1.6710658006679274e-01  1.7045407905351825e-01  1.0976839484108795e-01  6.7690737018615721e-02  1.0856951895137909e-01  6.2790112370086540e-02  3.3897076786320224e-01  8.1611572526700177e-02  1.1707052011482795e-01  1.9515236569823372e-01  6.0302342848050104e-02  1.5552210514612269e-01  3.0262581564405777e-01  2.4945213870624613e-01  2.6796066167497323e-01  8.6398926555270572e-01  -5.5492603715275236e-02  1.3186289341768712e-01  3.4284648680763008e-01  3.0129985510595047e-02  2.4614355902127457e-02  2.5673852457142121e-01  3.3218444895563776e-01  1.8414235417370992e-01  9.2586980263648111e-01  2.1025416037898104e-01  6.0612068303870288e-02  6.2860706628817833e-02  4.8336915190591895e-01  2.4865852082749162e-02  3.7197268025519337e-01  3.4266012614513297e-01  3.2931353865609891e-01  2.8517521136599683e-01  3.5203780295094612e-02  8.6932437053673553e-02  2.5040230052107115e-01  8.0562514652544395e-02  1.1062475327339777e-01  7.8611270456306323e-02  5.2564195549510404e-02  6.9769874831516190e-03  3.6979467757782264e-01  2.7419729932505749e-01  1.3876592321629286e-01  3.0242262567470224e-01  2.7745063099734629e-01  1.3610361562669590e-01  1.2276946836326742e-01  5.2052271370701497e-01  6.3785332862481628e-02  -3.3087338821677481e-01  1.3999476796420365e-01  -5.1565190277619588e-01  -3.1366212557597251e-01  4.4460792952636896e-01  3.5081384568208168e-01  1.3263533998913310e-01  2.3753797632081591e-01  1.4685171214895137e-01  1.8499352475330769e-01  1.8874760534345686e-01  2.7302179340315841e-01  3.2881408499715314e-01  3.5445505741060701e-01  7.1710401203221003e-02  3.3096365965869939e-01  5.7157872162238284e-02  2.1390644519577148e-01  2.8693391629299475e-01  1.3985974024556616e-01  8.5557404942861306e-02  2.5040972548998097e-01  2.2072225119812131e-01  1.2289193552211009e+00  9.9628850977345543e-02  3.4463491384015876e-01  2.0709885058268043e-01  2.1551818424282326e-01  2.2642094264946069e-01  1.1829002944504007e-01  1.5993669889951939e-01  8.9415805628659320e-02  8.0017479142762887e-02  2.3416962298810049e-02  1.5548376668794858e-01  5.0248007069839819e-02  5.9060805271353212e-01  5.8952218765852404e-01  1.4527854251682529e-01  6.6183348248028240e-02  1.9983508154521568e-01  7.2901648120889107e-01  3.5363093048216943e-01  1.4343808254078849e-01  3.2313477852835792e-01  3.2864422834383711e-01  3.8292725739802730e-01  4.8309903986467832e-02  4.2704705668760851e-01  1.8821390867264959e-01  1.8684435677376901e-01  2.0777637840703345e-01  8.0175138291126546e-02  2.8420174086886457e-01  8.7807506203800489e-01  -6.2073221728063703e-03  2.6189785753334105e-01  2.1731038586130149e-02  3.1713998320248499e-01  8.1937296117829017e-02  2.1485278778373690e-01  1.2564841066869376e-01  7.0678802837577243e-02  -4.8926355553231537e-10  2.4283066457650512e-01  3.5356702207394236e-01  2.4266942923826940e-01  2.3626379880191917e-01  2.9706257136377284e-01  1.2147220910921450e-01  3.4027455553776298e-01  7.7047539198195798e-03  2.5993045884182875e-01  2.9810443644649333e-02  2.6245475939418644e-01  5.1360401994007232e-01  4.9710338154294564e-01  6.6907112628977181e-02  2.8664008149772352e-01  1.7783319362633326e-01  1.6487741960361005e-01  1.6019177554843084e-01  1.5549522861950363e-01  1.6735942966081968e-01  7.2460214982509694e-02  3.0640287823736451e-01  3.2465081837067400e-01  2.6392269704754762e-01  3.1391028423733769e-01  2.9710034955772735e-01  1.8101314592681370e-01  1.7194657548880790e-01  3.1336302317268833e-01  2.4116075898269815e-01  7.1334600061125422e-02  2.7844208024368733e-01  3.4355172723642363e-01  3.5262022587280489e-01  3.2600642454366374e-01  -1.0896090635839340e-09  3.1972006122075936e-01  2.0886641509753995e-01  2.0289842725689142e-01  2.9977566211770584e-01  2.0228483005438186e-01  3.2117776661415981e-01  1.0351983951618335e-01  2.9638546268468274e-01  2.3899576558118701e-01  3.4661937759605371e-01  4.5352892376914489e-01  4.2788584490902379e-02  2.5507416859496262e-01  3.0243245254924528e-01  3.5659767947855481e-01  1.5843356223763097e-01  1.2343681412651052e-01  3.5493482160418699e-01  3.1535582691212660e-01  3.1641546593204239e-01  3.5567974261571667e-01  -2.5616111016450854e-01  9.4101293111851309e-02  1.3956827037320377e-02  1.5338610408566681e-02  6.4088956884875876e-03  3.5192442971352561e-01  7.2119677115910927e-02  4.6846999760458564e-02  2.5318945820968408e-01  1.9884240912391660e-01  1.0211462589010703e-01  9.3437636880644354e-02  1.3377968152982869e-01  3.2755969516647743e-01  2.2418454741115049e-01  2.2804784108034901e-01  1.5937925980267678e-01  1.8987791567748372e-01  2.1655037615192230e-01  2.5179572102230363e-01  2.4951188340740280e-01  3.0587718895743637e-01  3.4567374058027073e-01  3.5326344712293506e-01  2.0123004430987362e-01  5.8649358566580789e-01  2.5971252447019932e-01  5.7509749576668223e-01  4.3886783703042509e-01  2.6288840264685853e-01  2.3635901822250938e-01  2.7075559704675256e-01  3.2028371721240878e-01  -1.5755433350506555e-10  1.1931468090018089e+00  1.0023540352464930e+00  1.3737530601533862e-01  1.3037429111502155e-01  -2.7613451625148101e-02  6.1563089751786683e-02  6.5317992623820054e-01  4.5116009073029090e-01  5.9980044763228135e-01  6.0300483608997568e-01  6.4746497841594552e-01  5.3426546673266195e-01  5.6987465282620019e-02  2.4239419565916645e-02  3.5725387818937915e-01  1.4779844602770675e-01  1.3998044479572325e-01  1.3761515095889457e-01  1.8755539593887094e-01  2.2076814917936721e-01  1.2817126400494672e-01  8.4424940217391872e-02  3.5112714815028950e-01  9.2212498766218010e-02  6.0923871250473202e-02  5.8212633514703994e-02  3.1423791258443945e-01  4.3586766322524723e-01  1.0391230369428339e-01  3.0869885420490273e-01  9.7002202550799818e-02  2.2276528321532460e-01  1.6943889454351552e-01  2.8373550016525556e-01  3.5189110134054108e-01  7.0974135688779583e-02  2.4452531849540204e-01  2.0640417229731303e-01  3.7533573378496943e-01  3.9680678079202036e-01  1.12164