<?xml version="1.0"?>
<VTKFile type="UnstructuredGrid"  version="0.1"  >
<UnstructuredGrid>
<Piece  NumberOfPoints="2446" NumberOfCells="4585">
<Points>
<DataArray  type="Float64"  NumberOfComponents="3"  format="ascii">0 0.41 0  0 0 0  2.2 0 0  2.2 0.41 0  0.2404508497187474 0.2293892626146237 0  0.25 0.2 0  0.2404508497187474 0.1706107373853764 0  0.2154508497187474 0.1524471741852423 0  0.1845491502812526 0.1524471741852423 0  0.1595491502812526 0.1706107373853764 0  0.15 0.2 0  0.1595491502812526 0.2293892626146237 0  0.1845491502812527 0.2475528258147577 0  0.2154508497187474 0.2475528258147577 0  1.1 0 0  1.1 0.41 0  0 0.205 0  0.55 0 0  0.55 0.41 0  0.275 0 0  0.275 0.41 0  1.65 0.41 0  1.65 0 0  0.8250000000000001 0.41 0  0.8250000000000001 0 0  1.375 0 0  1.375 0.41 0  1.925 0 0  1.925 0.41 0  1.5125 0.205 0  1.7875 0.205 0  0.6875 0.205 0  0.9625000000000001 0.205 0  1.2375 0.205 0  2.2 0.205 0  0.4687002074688797 0.2068568464730291 0  1.99375 0.2152743902439024 0  2.0625 0 0  2.0625 0.41 0  2.2 0.3075 0  0.4125 0 0  0.4125 0.41 0  1.7875 0.41 0  1.375 0.1486128048780488 0  1.5125 0 0  1.7875 0 0  1.5125 0.41 0  0.8250000000000001 0.2613871951219511 0  0.9625000000000001 0.41 0  0.9625000000000001 0 0  0.6875 0.41 0  0.6875 0 0  0.1375 0 0  0.1375 0.41 0  1.2375 0 0  1.1 0.1486128048780487 0  1.2375 0.41 0  1.65 0.1486128048780487 0  1.126715909090909 0.2793064024390244 0  1.676715909090909 0.2793064024390244 0  0.8517159090909092 0.1306935975609756 0  1.348284090909091 0.2793064024390244 0  0.34375 0.3032389320646208 0  1.894702181800738 0.1282910975492754 0  2.092797818199262 0.1282910975492754 0  1.85625 0.3075 0  0.61875 0.3075 0  0.61875 0.1025 0  0.3648540804333487 0.1240075933101478 0  0 0.3075 0  0 0.1025 0  2.099172119769978 0.25625 0  0.48125 0.09238439620688085 0  0.5781001037344399 0.2059284232365146 0  0.48125 0.3196743479159776 0  0.7265881057911006 0.3055240343720796 0  1.99375 0.08395950269330846 0  1.459960956013612 0.3075 0  1.569025960719943 0.2986889805672169 0  0.75625 0.08213100772579164 0  1.03125 0.3278689922742084 0  0.923871252904788 0.3078247185783941 0  1.959375 0.3126371951219512 0  1.749222215368287 0.1025 0  1.275777784631713 0.1025 0  2.2 0.1025 0  1.225938124459196 0.3075 0  1.550777784631713 0.1025 0  1.000777784631713 0.1025 0  1.44375 0.07430640243902442 0  1.16875 0.07430640243902437 0  1.899250267340833 0.2229966846119207 0  0.1020898364287272 0.3140258291809757 0  1.766482954545455 0.2934032012195123 0  0.3405058858996321 0.2119987970531874 0  0.7710785630958338 0.1710968191298857 0  1.046078563095834 0.2389031808701144 0  0.2 0.3400647632937836 0  1.421109702350723 0.2261157654379721 0  0.2800464974185557 0.08982544815605742 0  0.098916018031319 0.09171660955420841 0  2.13125 0 0  2.118919042110979 0.3422084711244843 0  1.30625 0.41 0  0.89375 0 0  1.597888256393107 0.2173787389261347 0  0.20625 0 0  1.829299675393195 0.07400700849299596 0  1.71875 0.41 0  1.16875 0.41 0  2.038220665644273 0.332420740103091 0  0.34375 0 0  0.417496017710808 0.2696595573092803 0  0.2 0.07687845740457822 0  0.9295982307099278 0.1343158415898188 0  0.07390688010811153 0.1697064032433452 0  0.5238366813727013 0.2578302467013575 0  0.05452951551825875 0.25625 0  0.5229630068078351 0.1548816096928243 0  1.452769549894695 0.1548122580621249 0  1.369219062229598 0.07430640243902442 0  1.30625 0 0  0.8504409521244898 0.3356935975609756 0  0.8821881244591965 0.205 0  1.720943423819132 0.1714577452753128 0  1.157188124459196 0.205 0  1.094219062229598 0.07430640243902437 0  1.03125 0 0  1.304056576180868 0.1714577452753128 0  1.67579304192913 0.07430640243902437 0  0.2751941921308361 0.3346083473122598 0  1.209670467133757 0.1362100266964769 0  1.025335513626278 0.1700681449722324 0  0.7562500000000001 0.41 0  1.58125 0 0  0.7567170593862014 0.2409196493502535 0  0.6926714215682891 0.1272249611432207 0  0.4139715849905988 0.3397932387114203 0  0.9840787304190477 0.2717749043358119 0  0.06875000000000001 0.41 0  0 0.35875 0  0.9281250000000001 0.06276726142697993 0  0.5507396469029935 0.3219409231578227 0  0.5504468037989405 0.09136885600634273 0  1.58125 0.41 0  1.631724228912893 0.3381867502687533 0  1.825608881788174 0.14499488549201 0  1.85625 0 0  1.44375 0 0  1.44375 0.41 0  1.85625 0.41 0  2.13125 0.41 0  0.7562500000000001 0 0  0.89375 0.41 0  0.4812500000000001 0 0  0.34375 0.41 0  0.4812500000000001 0.41 0  0.20625 0.41 0  0.06875000000000001 0 0  1.16875 0 0  0.61875 0 0  0.61875 0.41 0  1.03125 0.41 0  1.71875 0 0  1.99375 0 0  1.99375 0.41 0  1.340625 0.3489494290853124 0  1.134375 0.3489494290853123 0  1.700180620188976 0.3438659752031281 0  2.135782184673599 0.07126652247502523 0  1.668441847249787 0.2129203728327609 0  1.295782514339747 0.2378437748815763 0  0.8233075729931248 0.06842334294821524 0  1.409375 0.3520314716057996 0  0.403505597322782 0.182067236678212 0  0.378125 0.05794951541303489 0  0.3043468223249023 0.1518321115979534 0  2.129248544730567 0.1906135162504124 0  2.060771381434487 0.1989445750470348 0  2.013252586573865 0.1496169464686054 0  1.942766402200229 0.1734448904596831 0  1.895522487186454 0.06076163953489683 0  2.069553871656643 0.06605731020975725 0  1.274680914880868 0.3520219391081363 0  1.614713220494657 0.09473434380863296 0  0.7899021319497519 0.3149123934144827 0  0.69518737419149 0.0634051089053758 0  0.2971740475496061 0.2592172353407536 0  1.72990325744076 0.2380068107952482 0  1.356580098625191 0.2120393231351682 0  2.034370752044885 0.2668681600792073 0  1.51768709249349 0.3426260931494756 0  1.561883724969884 0.1650446847858835 0  1.197344062229598 0.2523725417393646 0  1.804085235518364 0.3468178408964637 0  1.817887819205233 0.2589243285818559 0  1.905897727272727 0.3485060975609756 0  0.6719798073392919 0.2688965171178177 0  0 0.05125 0  0.653125 0.35875 0  0.6396896119294488 0.1627615407790282 0  0.4274150154087412 0.1242548552168279 0  1.192836486056382 0.3562350748565544 0  0.8279124365364005 0.183856489168822 0  1.097485222388854 0.2083571153401724 0  1.28257088594801 0.2944411014911587 0  1.474860187679412 0.2504218616229368 0  1.406767003493824 0.2829282258560709 0  0.446875 0.04619219810344041 0  0.515625 0.04585361801037557 0  0.592043440706648 0.05125 0  1.845656689180403 0.1998310418452388 0  2.144958525570388 0.2909790873294231 0  0.6171090763650112 0.2492366900333857 0  2.2 0.15375 0  0.5145586920831158 0.3648371739579888 0  1.57794966442982 0.3540357145964566 0  0.721875 0.3633107922168974 0  0.0496154796471391 0.333125 0  0.5843750000000001 0.3662560860076676 0  0.5810878747760798 0.1474002776121195 0  1.508991196088596 0.1421783375065625 0  0.8840670607017558 0.2640994375393898 0  0.09776612425612034 0.2204896805326566 0  1.50436820029908 0.06143401634903343 0  1.223857000523521 0.0823554862453532 0  1.153316824384777 0.1289850171317837 0  2.148922302309752 0.1258841779285271 0  0.309375 0.04312325590431198 0  1.621993280276081 0.2841214267927899 0  1.550118654119087 0.2461998729100966 0  1.327182649291491 0.1216967252533594 0  1.051977450479407 0.1221382572915816 0  1.753125 0.04556020050186112 0  1.271875 0.04556020050186116 0  0.9816084133102366 0.05126138213476004 0  1.039051841454368 0.0572224914831029 0  0.9719230514536006 0.3480477870845102 0  1.94956388244759 0.1180512551534177 0  1.949997712993411 0.04965831614304109 0  1.771961817615021 0.1530278789497521 0  1.909246823951428 0.2812757146784527 0  0.2459536687882397 0.04668633953831142 0  1.948575539857022 0.2445328248721197 0  1.697271520964565 0.1233917627620729 0  0.7964897648514618 0.1211426571931604 0  1.065625 0.3689344961371042 0  1.085849084308977 0.3170853572226867 0  0.4702981435440001 0.260434880697798 0  1.577403511714593 0.05463601888079143 0  0.05622663515370135 0.05493816910862376 0  0.3267207591099919 0.3566194660323104 0  0.9003051618565143 0.3564049499960621 0  1.751571320346033 0.3651102912045228 0  0.1583785085108421 0.2994699345738728 0  0.1455283439499995 0.3542795598723423 0  2.2 0.35875 0  0.2347662494194072 0.298325008655211 0  0.1527284455616188 0.1065771775690181 0  0.1382139529076665 0.05427454456341477 0  0.8749341636311069 0.05110114999892954 0  0.643661668713109 0.05693499781019222 0  1.466879772203159 0.3611261772912453 0  1.990280163552011 0.3564754268533217 0  1.17471064520912 0.2990917256188288 0  0.5202693090594349 0.206382495511728 0  0 0.25625 0  2.2 0.25625 0  2.2 0.05125 0  0 0.15375 0  1.853978576207987 0.35875 0  0.9787513713939683 0.1487523696999336 0  0.240625 0.3722153812029779 0  1.515638456102889 0.2882700110184686 0  0.09048297387599738 0.3637717362208066 0  2.150453692751374 0.2387066338105111 0  1.323782677156475 0.04897634338873398 0  0.8074131292871642 0.3624701995505916 0  1.409375 0.03715320121951221 0  1.406484531114799 0.1087852750766809 0  1.134375 0.03715320121951218 0  1.627401732573545 0.04552157221025036 0  0.1170173172005315 0.1427610859166811 0  2.045405893604797 0.1105340662939892 0  1.255408269734577 0.1577307500159216 0  2.028125 0.03707597992059326 0  0.4743610090857199 0.1421513964721819 0  0.9354010469015898 0.250631300585664 0  0.04420832937638274 0.128125 0  0.8922386349349938 0.0992956419364831 0  0.1197849154434487 0.2663398672460083 0  1.248258025468107 0.2565907092181813 0  0.3746885856929528 0.370723531618974 0  1.203125 0.0366132337404304 0  0.5724622277005015 0.2751253816079333 0  0.3365425205162783 0.08395777655057959 0  2.072662025974815 0.2975086504196739 0  0.4581080832182547 0.3648371739579888 0  0.3874522734668214 0.2295447548840689 0  0.7827853612484443 0.04106550386289586 0  1.887722846421017 0.1760882698830035 0  1.472640588990488 0.1118278026240017 0  1.865937103925594 0.2604137786483804 0  1.463913572748262 0.2030442564990043 0  1.376426316059077 0.3186741374914345 0  0.6641993820150034 0.3141688596240831 0  0.2943117490824315 0.2130987422685822 0  0.3478153998082709 0.1666571081082676 0  0.3427990510599805 0.2575950027870776 0  0.7997118993855807 0.2216171933356366 0  
[...]
<PointData  Scalars="f_37"> 
<DataArray  type="Float64"  Name="f_37"  format="ascii">6.6054521444100833e-01  6.7641156183942319e-01  -5.5222483199875683e-10  -6.6425258576564736e-10  -1.2648726361976559e-01  1.2568744228949655e-01  -1.0231066980713138e-01  -7.3809386219955708e-01  -6.4156782552656577e-01  4.6939461194400800e-01  2.1839872989375619e+00  5.6489557979608973e-01  -9.0943304459270047e-01  -5.1588416670983794e-01  3.1803261323588039e-01  3.1614687849785450e-01  9.5625283944373518e-01  4.7135870941497882e-01  4.6943318555535757e-01  4.6729126263654436e-01  4.9381283004094134e-01  1.5659664277862956e-01  1.6004805105989545e-01  3.9557013561968807e-01  3.9426681893574733e-01  2.3793706139324231e-01  2.3843570661186964e-01  7.8217793105945926e-02  8.0452825380948889e-02  1.9856852060307503e-01  1.1929992141812014e-01  4.3686810948116139e-01  3.5711040775848485e-01  2.7770440986981282e-01  1.3492554615170381e-11  5.1421177827457321e-01  5.9754323898406979e-02  3.8288930715189261e-02  4.4262787566340375e-02  -1.8171566644454324e-10  4.8139957524795990e-01  4.8686254475958213e-01  1.2115316445440655e-01  2.3809685153717047e-01  1.9629264744029781e-01  1.1945190117229375e-01  1.9758042007874227e-01  3.9673305845612911e-01  3.5844370278171667e-01  3.5794829127480432e-01  4.3617868922884884e-01  4.3366310877062364e-01  7.5212607775727747e-01  7.5025168999835767e-01  2.7808251155208569e-01  3.1740879345091316e-01  2.7769506679246581e-01  1.5897302828941748e-01  3.0963001467054457e-01  1.5127041178786774e-01  3.8903261481470741e-01  2.4582381179244825e-01  4.9232495760029243e-01  8.8385890724324845e-02  3.1186460181217263e-02  9.9360418823536342e-02  4.5626154282303544e-01  4.5610610865080620e-01  5.2427472748984538e-01  7.3704988807413496e-01  7.5674405647715082e-01  2.9367553225546003e-02  4.9342616244429499e-01  4.7071932407171790e-01  4.9386272537947451e-01  4.2509444217797665e-01  5.9800963723777537e-02  2.1379138370556167e-01  1.8230554243136810e-01  4.1657712384164763e-01  3.3715279490697247e-01  3.6818270816255455e-01  6.9669120166122520e-02  1.3038040346164295e-01  2.6654420457777878e-01  -7.3829695113497543e-10  2.8095360527133306e-01  1.8753376071283354e-01  3.4608626079107480e-01  2.1828456909760707e-01  2.9761858960174403e-01  8.7047418238865137e-02  6.5016537686460951e-01  1.2535346489975613e-01  6.2238892990655459e-01  4.1238225736027601e-01  3.3301910181665068e-01  5.1600547677788244e-01  2.2489369827454592e-01  3.6860366400385913e-01  6.6703259082948263e-01  2.0356627354183907e-02  2.4110065839186571e-02  2.5847301446545484e-01  3.7639150344102446e-01  1.7398930143258576e-01  5.8923532916997734e-01  1.0738363570494730e-01  1.3794117009685919e-01  2.9714883381025026e-01  4.6985953507541735e-02  4.6088489187949605e-01  5.2682814310207593e-01  4.4329885676600639e-01  3.6660248590242095e-01  1.0767954064018219e+00  4.8795711163708955e-01  9.1702841825652648e-01  4.8829017359365029e-01  2.1572138178235337e-01  2.3981979271498480e-01  2.5710347014653773e-01  3.8933555748438753e-01  3.8027638285308485e-01  1.3849314418739658e-01  3.0086437255619064e-01  3.1919928512398871e-01  3.3587463602233936e-01  2.5847982886177834e-01  1.5140260732052624e-01  4.2358607137202875e-01  2.8572013368308874e-01  3.3898170783959974e-01  4.1832312660194881e-01  1.7909279566144709e-01  4.1652666488568962e-01  4.3499474251294895e-01  5.0002779576973411e-01  3.5088614287001901e-01  6.7156948837650388e-01  6.7142200607756686e-01  3.6717834996844612e-01  4.7508530455239362e-01  4.7494125410949145e-01  1.8016413085440239e-01  1.6438912642323181e-01  1.0831573694116431e-01  9.9094039835487382e-02  2.1819178902039915e-01  2.1893220445188902e-01  9.7963481296146168e-02  2.1073082197265596e-02  4.1793416285918428e-01  3.7667045629993479e-01  4.8416790909376517e-01  4.7691391840337771e-01  4.8580119548764839e-01  6.1310595171064697e-01  6.8994127490320090e-01  2.9656311773656280e-01  4.5450471584817148e-01  4.5480461165877217e-01  3.3912880446742627e-01  1.4009610463752639e-01  5.9901999879572947e-02  5.6189911551184878e-02  2.4791844495033469e-01  3.0759741905835747e-01  1.4437886526442448e-01  1.8855832003047437e-02  1.5362605419935538e-01  2.6089575037550911e-01  3.9730291259023359e-01  2.2869376076716932e-01  5.5533712677900149e-01  4.8774048876419462e-01  3.6441941150206952e-01  2.0599984850530679e-02  4.0407299647407260e-02  5.4135624891596727e-02  7.4495226889048596e-02  8.8149283603465800e-02  3.7983078471170328e-02  2.6670887106026320e-01  1.6921101763491503e-01  4.0673277757715381e-01  4.3380364723535408e-01  2.9757660381581391e-01  1.3592948124007501e-01  2.4341817129296514e-01  4.8062596253964550e-02  1.9689596489865926e-01  1.8435835976737555e-01  2.8926641491780897e-01  1.1456826185390329e-01  1.1051028475593162e-01  8.5063936787700994e-02  4.4122700367709877e-01  6.8724501536615679e-01  4.4559434938484044e-01  4.5097082517988857e-01  5.1804478509809948e-01  2.9046125942479784e-01  3.9595620657323538e-01  3.1806061708623934e-01  2.6465240061775891e-01  2.0944371187547250e-01  2.2907969537261025e-01  4.8998807645577108e-01  4.7970748089722492e-01  4.6202921613658349e-01  1.0254126012686360e-01  1.6208959644359509e-02  4.5785860013672597e-01  1.3492554615170381e-11  4.8151736719945842e-01  1.7995431054630154e-01  4.2630819044029422e-01  6.7379264353649648e-01  4.6378397491413748e-01  4.6858937317701133e-01  1.9953298067510722e-01  3.7968085311741862e-01  1.3030600762887083e+00  2.0047426065713805e-01  2.8168469452162287e-01  3.0199438555951047e-01  1.4925320725476808e-02  4.5186168869580456e-01  1.6701778785920512e-01  1.8776052996077650e-01  2.5177580864714016e-01  3.3129336515138780e-01  1.2940229146259066e-01  2.6728411342225494e-01  3.5181075579617366e-01  3.3497102609910534e-01  3.5424107590030968e-01  7.2546361049907179e-02  7.2488963284248906e-02  1.2381214702957206e-01  8.4179227350418939e-02  4.5512865128317814e-01  7.2837345442560500e-02  1.4536078607299874e-01  4.0500370994467988e-01  3.2750076415114088e-01  3.2139515271515973e-01  5.0787033853005314e-01  1.7991554306838045e-01  6.5552508078813509e-01  4.7539226518306499e-01  3.7500984444706970e-01  1.3009997635142950e-01  4.9533177307336734e-01  6.8698491671584894e-01  -6.6425258576564736e-10  2.2458271636023072e-01  4.8105729526212093e-01  7.0402433871762404e-01  3.8201579757694198e-01  4.4820052909012442e-01  2.1170683913244798e-01  6.0296811500653989e-02  2.9583235091218107e-01  4.9118902719986018e-01  8.7202480917621461e-01  -5.0270538680602255e-10  -6.7972046341771444e-10  8.8829840724271503e-01  9.9943710968099772e-02  3.5243514389748520e-01  5.1165709607095822e-01  1.9769162299490345e-01  6.2441878023561259e-01  1.4474905698893507e-02  2.5249960912993979e-01  4.0101741308712535e-01  2.2890417814829733e-01  2.2909021292588391e-01  3.0802282008025583e-01  1.6568918565322963e-01  9.2604077442028288e-01  4.4833517329672785e-02  2.7252744067357554e-01  4.9564571325092691e-02  5.0492941366608346e-01  3.6489371193790232e-01  8.3016794152067364e-01  3.7732419590707378e-01  8.5304083704917155e-01  2.7457314622041928e-01  4.8705426540000357e-01  2.8761364935707340e-01  4.7104799379698487e-01  4.7047043720400461e-01  3.7115159343890723e-02  4.9146215921186570e-01  5.6412897487730929e-01  4.0865180595749134e-01  9.0390188801517821e-02  2.0997003096287106e-01  9.6650145698270781e-02  2.1254904418190090e-01  2.3781040284399277e-01  4.4306569417099001e-01  3.5301845729126791e-01  5.9653268316105301e-01  5.4136152913158742e-01  4.0406585564817843e-01  1.3811759314185282e-01  1.2318404597330111e-01  2.8399562432468529e-02  4.2688119700244614e-01  4.2158633701352638e-01  3.4593215963867308e-01  3.3787696265956774e-01  3.2037540080236482e-01  2.3226265011198760e-01  -1.4288592698583000e-02  4.9646408257988668e-02  1.7249814878326261e-01  4.5076607337519420e-01  4.2993433603371450e-01  1.1222858434906681e-01  1.0280736892363562e+00  6.0716104210130593e-02  1.1385157812798776e-02  3.1573439445347372e-02  3.6947881321172611e-02  6.8228026008112386e-01  4.2264739899480702e-01  1.6889022972677464e-01  1.1763120622033274e-01  5.6160320799245295e-02  6.8303161607306218e-01  2.3590279706253073e-01  2.8927211640030148e-01  2.0792536875529846e-01  1.6434282148526544e-01  1.8647239222910425e-01  3.8912500789817750e-01  1.4732538530286046e-01  1.4235495961248140e-01  3.4767598908611314e-01  3.4298231621984876e-01  1.1258277724406157e-02  1.3408025150903100e-02  6.5155117643110383e-01  4.4258399001852144e-01  4.1399099204143108e-01  3.6868534550731752e-01  3.7999461094926135e-01  1.6331587936454911e-01  1.1682244439650695e-01  9.6200736614008936e-02  1.8700832855772384e-01  7.4086527390183621e-02  5.3843298585798938e-01  1.8919800417076384e-02  1.0876409041154783e-01  3.2492041314740111e-01  1.3411836227635157e-01  1.5521359764251205e-01  3.5744731376172079e-01  5.0135344653196667e-01  6.9385928119285090e-01  4.1590474876026365e-02  3.6503112450992076e-01  1.8678131269562734e-01  2.7841891131517799e-01  3.0757276843041078e-02  2.1035588006196321e-01  6.1024455747100981e-01  3.2668356876114091e-01  5.2464502367437138e-01  1.7633874967435015e-01  4.0847480470561670e-01  5.1411557006043074e-01  5.0683234436554980e-01  4.2018583727309616e-01  3.0836783831219672e-01  3.8787058560187437e-01  3.0899937084214174e-01  3.0659837946868262e-01  1.4430202257870113e+00  1.1442396276340316e-02  2.5361284366477549e-01  6.1456453932240120e-02  3.8857425160428016e-01  8.8510957448552932e-02  9.9327335256107582e-02  8.8119351556571149e-02  7.8650828763808231e-02  1.9895644240982133e-01  1.4083191841275738e-01  1.5437512849025803e-01  1.5805820977788865e-01  6.6531639691487165e-01  3.7899778653379834e-01  4.0232088033270869e-01  6.5207627876721597e-01  4.7258988420332812e-02  2.2681228612969254e-01  4.3857427518380948e-01  3.4829819301701204e-01  7.5609613998548320e-01  4.7130733846067352e-01  3.3909070193823654e-01  1.2202854799631868e-01  4.2848947966324208e-01  3.6371116862438735e-01  4.3564016970038061e-01  2.0518173410656063e-01  9.4911285701172565e-01  2.9968562643204499e-01  3.8833527073973956e-01  4.8634660638446590e-02  2.1840066779679587e-01  4.7668719579640501e-01  6.5474144221247221e-01  1.9855929383983556e-01  4.7559819225122557e-01  4.6195102018782153e-01  5.0123385177203650e-01  4.9080619420780602e-01  4.7794869347338054e-01  4.6434058489931435e-01  4.9392727043893531e-01  4.8018376303152643e-01  3.8600936708807487e-01  8.0299691766769632e-01  1.9367105475565433e-01  1.3088848659379548e-01  2.6610599039117022e-01  1.3518995965990432e-01  2.6179224547250235e-01  2.3975345241156251e-01  2.4174714063199962e-01  3.2066766670343333e-01  1.4863596851524558e-01  2.4852327489943185e-01  6.5514478050402183e-02  8.8191394453863703e-01  4.9106338690287848e-01  2.9063432368167069e-01  2.7573775451241245e-01  7.1888363878338646e-01  4.3416576265758261e-01  1.7281377806644441e-01  1.5386578201441214e-01  5.4024427101569694e-01  8.1840052358476204e-02  -4.5003710433130839e-02  7.0635959420196359e-01  5.0072415671721426e-01  1.6602307596827709e-01  1.7466048457817934e-01  1.9310555546739810e-01  4.4572378950210195e-01  1.1142986197184007e-01  4.1929903134381463e-01  3.9763369911940120e-02  5.0124758739024132e-02  2.5625173468649165e-01  1.6234607449060721e-02  2.6747586657896137e-02  2.4182077119812039e-02  1.0720768229813826e-02  1.2381135296402043e-01  1.8951251143045578e-01  3.3772704859663139e-01  3.4269219998877726e-01  3.4885745250078920e-01  4.3908732813870194e-01  2.2869151356916406e-01  3.1779525377614248e-01  3.6100967654624599e-01  3.7334522281802041e-01  3.8696384748738299e-01  3.9210471788948403e-01  1.0322112405454732e-02  2.3334687070433839e-02  3.4237536206873698e-01  7.0406094638024608e-02  2.6699583648296062e-02  4.1899790636957296e-01  2.8751489242765627e-01  3.6687060581499581e-01  9.8895904471312371e-02  1.1504947183180507e-01  4.6871831937686909e-01  4.7111563761885739e-01  4.9189605719869256e-01  3.6717675762553476e-01  6.0407382263357057e-01  3.5803410889974635e-01  4.0280439832709852e-01  3.0083680702281862e-01  3.0831960017555521e-01  2.5744807767932304e-01  2.4817012486045001e-01  2.3904065982135447e-01  3.0559692377311737e-01  2.2176523779545604e-01  2.2805618166920807e-02  2.8601251391365684e-01  4.0555457052247013e-01  4.7321642369394290e-01  5.9097546350651264e-01  5.4106894111214454e-01  4.8659903942779364e-01  4.7879277052561786e-01  4.8399270230544528e-01  4.8241419839470440e-01  4.6445443446226825e-01  4.5493733219661336e-01  1.0011447269821269e-01  2.7757548320396702e-01  3.5550595452784745e-01  4.8321347297064576e-01  4.7783172030487436e-01  4.6682412017876262e-01  2.2787763883288931e-01  1.4927198372919770e-01  5.9924301549841408e-02  4.9571796534735209e-02  6.9420905702364921e-02  2.6710045366726315e-01  3.1164717239403178e-01  2.9755714774297515e-01  4.8589309267040059e-01  2.4717455366190827e-01  3.2719555867192507e-01  8.6920897248739630e-03  3.2215421165812753e-02  3.0759894459557663e-01  2.3021220206920390e-01  2.0897263475582042e-01  1.3124471198306925e-01  3.2723918224978432e-01  1.2756500233468904e-01  4.2450139551204930e-01  2.2930604129434473e-01  4.2532996958830621e-01  9.6694268519275251e-03  3.6645364355090854e-01  4.8191890185163261e-01  4.8473343997345342e-01  4.8919773872064942e-01  7.4647670653345255e-01  5.4022947903867347e-01  5.1011617988028990e-01  7.3757627164990647e-01  4.4513144710118796e-01  4.0636764699293604e-01  4.5476372632084194e-01  4.6498099669212534e-01  4.7934696669948862e-01  4.6313241151735018e-01  4.7657546454842925e-01  4.4638416141398340e-01  3.4525955109190132e-01  2.8838100120879989e-01  1.6847569517598890e-01  7.1269676499579701e-02  2.6743891391297669e-01  4.8970830759362337e-02  7.0757695226618997e-02  1.3915818959831544e-01  5.4907035706556806e-02  4.0691143006845654e-01  2.1969825607806207e-01  2.9692395400015809e-01  5.0742483832569663e-01  2.4988818297921195e-01  2.5619557444039853e-01  2.9761837748362141e-01  1.9113534664579457e-01  2.0391135548660333e-01  8.4626650709050580e-02  4.6015498168474944e-01  2.1935917544753245e-01  2.2352173160154870e-01  1.4414674528232410e-01  8.8985130465006029e-02  1.4259953164395742e-01  3.3184014440490972e-01  4.4299276554202033e-01  1.0742390199812707e-01  1.5369609505518264e-01  2.5577164812968184e-01  7.9360567611560420e-02  2.0359245445693572e-01  3.9672832075825470e-01  3.2688836704578861e-01  3.5143387183494745e-01  9.2954922424973629e-01  3.0166571379807156e-01  1.7390090495049063e-01  4.5379945167906272e-01  4.0333111689917642e-02  3.2761312742195868e-02  3.3646447815048991e-01  4.3755667576135970e-01  2.4136467056787286e-01  9.8940038564280730e-01  2.7519044484577343e-01  7.9792869742920200e-02  8.2754965249531451e-02  7.3054710001899614e-01  3.3424696341802729e-02  5.9844632211651072e-01  4.4902341103077331e-01  4.3147615194118183e-01  3.7370531433543164e-01  4.6534710394413349e-02  1.1463261377926215e-01  3.2816132957488897e-01  1.0579279446131713e-01  1.4522309812093295e-01  1.0337921091275669e-01  6.9250243260041505e-02  9.3004619741455415e-03  5.0246809301994644e-01  3.5931351971073955e-01  1.8206509041633770e-01  3.9615934156162186e-01  3.6345953088667232e-01  1.7865614161186480e-01  1.6115199442172523e-01  5.3377846999311440e-01  8.4238326501802241e-02  5.1268571412030794e-01  1.8385211605039392e-01  -1.1404766508652481e-01  3.2701660951603628e-01  7.0508308258945696e-01  4.5799119841833652e-01  1.7577072515150483e-01  3.1131378707831797e-01  1.9260548771213068e-01  4.2631636222115943e-01  2.4725019948229043e-01  3.5780533169882622e-01  4.3128406466851060e-01  4.6066067891025464e-01  9.3804917127348550e-02  4.3415325059175341e-01  7.5212206479222429e-02  2.8031100622913319e-01  3.7596376755815775e-01  1.8353745952781936e-01  1.1249115119447521e-01  3.2820558542698242e-01  2.8920648179738323e-01  1.2932034949581317e+00  1.3093575605338795e-01  4.5452192165528554e-01  2.7138448250098984e-01  2.8238181587239553e-01  2.9672003119663148e-01  1.5528418960955090e-01  2.0953463261024555e-01  1.1756866461779034e-01  1.0520136083268902e-01  3.0989943804384884e-02  2.0272852738024136e-01  6.4673226837946046e-02  6.7855633003246307e-01  6.6960015341001478e-01  1.9052893765969112e-01  8.7221845348241761e-02  2.6191042394999919e-01  7.9199727746623649e-01  4.9705885486838813e-01  1.8808484313721588e-01  5.3589740084846016e-01  5.7529958361823896e-01  5.0281423141457471e-01  6.3684649870115920e-02  5.2380729811079763e-01  2.4661665994628137e-01  4.4753782253109264e-01  2.7209269120185403e-01  1.0412753667390823e-01  3.7176617523118632e-01  9.4332496941679989e-01  4.6105158940777030e-01  4.7534715187773313e-01  2.9245404149607208e-02  4.1574478103431156e-01  1.0807448129669536e-01  2.8154266175378179e-01  1.6489819863911859e-01  9.2951919820759427e-02  -5.0270538680602255e-10  3.1823305001257846e-01  4.6640980839437307e-01  3.1804131402337665e-01  3.0963712197945115e-01  3.8916567287408305e-01  1.5944827013208085e-01  4.4428886623619690e-01  1.0302287522647769e-02  3.4063144906378801e-01  3.9471960589621484e-02  3.4383517337679603e-01  6.1738868002284630e-01  5.8096048874832107e-01  8.8020964867652152e-02  3.7566378391060601e-01  2.3314117597929074e-01  2.1620215929137210e-01  2.1008027852642008e-01  2.0393255970347951e-01  2.1983591217804169e-01  9.5229908483838707e-02  4.0149396399709780e-01  4.2555920588883089e-01  3.4610368165514110e-01  4.1111223741656916e-01  3.8925121793238115e-01  2.3735645687507065e-01  2.2546766583833763e-01  4.1082079755387901e-01  3.1584378351743103e-01  9.3856316855370894e-02  3.6489258816334413e-01  4.4902690533325762e-01  4.6113951851638119e-01  4.2779513233544830e-01  -1.0622425873827571e-09  5.4386341181215303e-01  2.7364953625423999e-01  2.6588882980629513e-01  3.9331062321857468e-01  2.6481640562781622e-01  4.2085515497140619e-01  1.3595860813634125e-01  3.8841938000041715e-01  3.1324555446997976e-01  4.5611681092111972e-01  5.7467303039865880e-01  5.4339998782810504e-02  3.3406773418831931e-01  3.9624652707351199e-01  4.7603586084006011e-01  2.0771717658509239e-01  1.6202019381936769e-01  4.9327620488021295e-01  4.1300519653373230e-01  4.1446670487590798e-01  4.8668691258855662e-01  -6.9836532717875835e-02  1.2476362781377023e-01  1.8757414387152133e-02  2.0411610952963798e-02  8.6065723621812987e-03  4.7591453181082566e-01  9.4871416260187316e-02  6.1559726217032450e-02  3.3181581543358218e-01  2.5952294876720755e-01  1.3534389178405773e-01  1.2260109215660141e-01  1.7555417573725687e-01  4.2858063595170920e-01  2.9383361211963505e-01  2.9890416792163271e-01  4.3621412024786088e-01  2.4887111233144080e-01  2.8339959911480117e-01  3.3000237787893094e-01  3.2692792181736552e-01  4.0091120860843821e-01  4.8593322207999073e-01  4.8920800864016800e-01  2.6343596472959929e-01  6.1958415986318993e-01  4.8680777106809137e-01  6.5522194612237639e-01  7.2221512703052393e-01  4.6508551839725865e-01  3.0973145775705085e-01  4.7507136557105312e-01  4.1935622422387153e-01  1.3492554615170381e-11  1.2473084398709644e+00  1.0637650762138036e+00  1.8038420827408835e-01  1.7174660675085662e-01  1.3136998056408192e-01  8.1067071818985398e-02  7.3153448855700787e-01  5.4169093613881503e-01  6.9351475997744283e-01  6.6881502909661272e-01  6.7962358904727527e-01  5.9404466494397101e-01  7.5071359238943272e-02  3.2101773360008211e-02  4.6953242343732465e-01  1.9386172152789619e-01  1.8365042002284448e-01  1.8054019264170007e-01  2.4594347031667657e-01  2.8945037381419347e-01  1.6819114885903733e-01  1.1102347825344397e-01  4.6939235913880434e-01  1.2178512113944452e-01  8.0201284532100015e-02  7.6832169771656189e-02  5.0099581241263924e-01  5.3093240122471064e-01  1.3652750106757361e-01  4.0432895210447406e-01  1.2750401796962810e-01  2.9158357018061537e-01  2.2223862411572090e-01  3.7178901371585216e-01  4.7507232847060488e-01  9.3415473022966766e-02  4.5544784435614499e-01  2.7039586334514482e-01  4.8092194559030438e-01  5.1427094631414616e-01  1.4728644115942818e-01  