<?xml version="1.0"?>
<VTKFile type="UnstructuredGrid"  version="0.1"  >
<UnstructuredGrid>
<Piece  NumberOfPoints="2446" NumberOfCells="4585">
<Points>
<DataArray  type="Float64"  NumberOfComponents="3"  format="ascii">0 0.41 0  0 0 0  2.2 0 0  2.2 0.41 0  0.2404508497187474 0.2293892626146237 0  0.25 0.2 0  0.2404508497187474 0.1706107373853764 0  0.2154508497187474 0.1524471741852423 0  0.1845491502812526 0.1524471741852423 0  0.1595491502812526 0.1706107373853764 0  0.15 0.2 0  0.1595491502812526 0.2293892626146237 0  0.1845491502812527 0.2475528258147577 0  0.2154508497187474 0.2475528258147577 0  1.1 0 0  1.1 0.41 0  0 0.205 0  0.55 0 0  0.55 0.41 0  0.275 0 0  0.275 0.41 0  1.65 0.41 0  1.65 0 0  0.8250000000000001 0.41 0  0.8250000000000001 0 0  1.375 0 0  1.375 0.41 0  1.925 0 0  1.925 0.41 0  1.5125 0.205 0  1.7875 0.205 0  0.6875 0.205 0  0.9625000000000001 0.205 0  1.2375 0.205 0  2.2 0.205 0  0.4687002074688797 0.2068568464730291 0  1.99375 0.2152743902439024 0  2.0625 0 0  2.0625 0.41 0  2.2 0.3075 0  0.4125 0 0  0.4125 0.41 0  1.7875 0.41 0  1.375 0.1486128048780488 0  1.5125 0 0  1.7875 0 0  1.5125 0.41 0  0.8250000000000001 0.2613871951219511 0  0.9625000000000001 0.41 0  0.9625000000000001 0 0  0.6875 0.41 0  0.6875 0 0  0.1375 0 0  0.1375 0.41 0  1.2375 0 0  1.1 0.1486128048780487 0  1.2375 0.41 0  1.65 0.1486128048780487 0  1.126715909090909 0.2793064024390244 0  1.676715909090909 0.2793064024390244 0  0.8517159090909092 0.1306935975609756 0  1.348284090909091 0.2793064024390244 0  0.34375 0.3032389320646208 0  1.894702181800738 0.1282910975492754 0  2.092797818199262 0.1282910975492754 0  1.85625 0.3075 0  0.61875 0.3075 0  0.61875 0.1025 0  0.3648540804333487 0.1240075933101478 0  0 0.3075 0  0 0.1025 0  2.099172119769978 0.25625 0  0.48125 0.09238439620688085 0  0.5781001037344399 0.2059284232365146 0  0.48125 0.3196743479159776 0  0.7265881057911006 0.3055240343720796 0  1.99375 0.08395950269330846 0  1.459960956013612 0.3075 0  1.569025960719943 0.2986889805672169 0  0.75625 0.08213100772579164 0  1.03125 0.3278689922742084 0  0.923871252904788 0.3078247185783941 0  1.959375 0.3126371951219512 0  1.749222215368287 0.1025 0  1.275777784631713 0.1025 0  2.2 0.1025 0  1.225938124459196 0.3075 0  1.550777784631713 0.1025 0  1.000777784631713 0.1025 0  1.44375 0.07430640243902442 0  1.16875 0.07430640243902437 0  1.899250267340833 0.2229966846119207 0  0.1020898364287272 0.3140258291809757 0  1.766482954545455 0.2934032012195123 0  0.3405058858996321 0.2119987970531874 0  0.7710785630958338 0.1710968191298857 0  1.046078563095834 0.2389031808701144 0  0.2 0.3400647632937836 0  1.421109702350723 0.2261157654379721 0  0.2800464974185557 0.08982544815605742 0  0.098916018031319 0.09171660955420841 0  2.13125 0 0  2.118919042110979 0.3422084711244843 0  1.30625 0.41 0  0.89375 0 0  1.597888256393107 0.2173787389261347 0  0.20625 0 0  1.829299675393195 0.07400700849299596 0  1.71875 0.41 0  1.16875 0.41 0  2.038220665644273 0.332420740103091 0  0.34375 0 0  0.417496017710808 0.2696595573092803 0  0.2 0.07687845740457822 0  0.9295982307099278 0.1343158415898188 0  0.07390688010811153 0.1697064032433452 0  0.5238366813727013 0.2578302467013575 0  0.05452951551825875 0.25625 0  0.5229630068078351 0.1548816096928243 0  1.452769549894695 0.1548122580621249 0  1.369219062229598 0.07430640243902442 0  1.30625 0 0  0.8504409521244898 0.3356935975609756 0  0.8821881244591965 0.205 0  1.720943423819132 0.1714577452753128 0  1.157188124459196 0.205 0  1.094219062229598 0.07430640243902437 0  1.03125 0 0  1.304056576180868 0.1714577452753128 0  1.67579304192913 0.07430640243902437 0  0.2751941921308361 0.3346083473122598 0  1.209670467133757 0.1362100266964769 0  1.025335513626278 0.1700681449722324 0  0.7562500000000001 0.41 0  1.58125 0 0  0.7567170593862014 0.2409196493502535 0  0.6926714215682891 0.1272249611432207 0  0.4139715849905988 0.3397932387114203 0  0.9840787304190477 0.2717749043358119 0  0.06875000000000001 0.41 0  0 0.35875 0  0.9281250000000001 0.06276726142697993 0  0.5507396469029935 0.3219409231578227 0  0.5504468037989405 0.09136885600634273 0  1.58125 0.41 0  1.631724228912893 0.3381867502687533 0  1.825608881788174 0.14499488549201 0  1.85625 0 0  1.44375 0 0  1.44375 0.41 0  1.85625 0.41 0  2.13125 0.41 0  0.7562500000000001 0 0  0.89375 0.41 0  0.4812500000000001 0 0  0.34375 0.41 0  0.4812500000000001 0.41 0  0.20625 0.41 0  0.06875000000000001 0 0  1.16875 0 0  0.61875 0 0  0.61875 0.41 0  1.03125 0.41 0  1.71875 0 0  1.99375 0 0  1.99375 0.41 0  1.340625 0.3489494290853124 0  1.134375 0.3489494290853123 0  1.700180620188976 0.3438659752031281 0  2.135782184673599 0.07126652247502523 0  1.668441847249787 0.2129203728327609 0  1.295782514339747 0.2378437748815763 0  0.8233075729931248 0.06842334294821524 0  1.409375 0.3520314716057996 0  0.403505597322782 0.182067236678212 0  0.378125 0.05794951541303489 0  0.3043468223249023 0.1518321115979534 0  2.129248544730567 0.1906135162504124 0  2.060771381434487 0.1989445750470348 0  2.013252586573865 0.1496169464686054 0  1.942766402200229 0.1734448904596831 0  1.895522487186454 0.06076163953489683 0  2.069553871656643 0.06605731020975725 0  1.274680914880868 0.3520219391081363 0  1.614713220494657 0.09473434380863296 0  0.7899021319497519 0.3149123934144827 0  0.69518737419149 0.0634051089053758 0  0.2971740475496061 0.2592172353407536 0  1.72990325744076 0.2380068107952482 0  1.356580098625191 0.2120393231351682 0  2.034370752044885 0.2668681600792073 0  1.51768709249349 0.3426260931494756 0  1.561883724969884 0.1650446847858835 0  1.197344062229598 0.2523725417393646 0  1.804085235518364 0.3468178408964637 0  1.817887819205233 0.2589243285818559 0  1.905897727272727 0.3485060975609756 0  0.6719798073392919 0.2688965171178177 0  0 0.05125 0  0.653125 0.35875 0  0.6396896119294488 0.1627615407790282 0  0.4274150154087412 0.1242548552168279 0  1.192836486056382 0.3562350748565544 0  0.8279124365364005 0.183856489168822 0  1.097485222388854 0.2083571153401724 0  1.28257088594801 0.2944411014911587 0  1.474860187679412 0.2504218616229368 0  1.406767003493824 0.2829282258560709 0  0.446875 0.04619219810344041 0  0.515625 0.04585361801037557 0  0.592043440706648 0.05125 0  1.845656689180403 0.1998310418452388 0  2.144958525570388 0.2909790873294231 0  0.6171090763650112 0.2492366900333857 0  2.2 0.15375 0  0.5145586920831158 0.3648371739579888 0  1.57794966442982 0.3540357145964566 0  0.721875 0.3633107922168974 0  0.0496154796471391 0.333125 0  0.5843750000000001 0.3662560860076676 0  0.5810878747760798 0.1474002776121195 0  1.508991196088596 0.1421783375065625 0  0.8840670607017558 0.2640994375393898 0  0.09776612425612034 0.2204896805326566 0  1.50436820029908 0.06143401634903343 0  1.223857000523521 0.0823554862453532 0  1.153316824384777 0.1289850171317837 0  2.148922302309752 0.1258841779285271 0  0.309375 0.04312325590431198 0  1.621993280276081 0.2841214267927899 0  1.550118654119087 0.2461998729100966 0  1.327182649291491 0.1216967252533594 0  1.051977450479407 0.1221382572915816 0  1.753125 0.04556020050186112 0  1.271875 0.04556020050186116 0  0.9816084133102366 0.05126138213476004 0  1.039051841454368 0.0572224914831029 0  0.9719230514536006 0.3480477870845102 0  1.94956388244759 0.1180512551534177 0  1.949997712993411 0.04965831614304109 0  1.771961817615021 0.1530278789497521 0  1.909246823951428 0.2812757146784527 0  0.2459536687882397 0.04668633953831142 0  1.948575539857022 0.2445328248721197 0  1.697271520964565 0.1233917627620729 0  0.7964897648514618 0.1211426571931604 0  1.065625 0.3689344961371042 0  1.085849084308977 0.3170853572226867 0  0.4702981435440001 0.260434880697798 0  1.577403511714593 0.05463601888079143 0  0.05622663515370135 0.05493816910862376 0  0.3267207591099919 0.3566194660323104 0  0.9003051618565143 0.3564049499960621 0  1.751571320346033 0.3651102912045228 0  0.1583785085108421 0.2994699345738728 0  0.1455283439499995 0.3542795598723423 0  2.2 0.35875 0  0.2347662494194072 0.298325008655211 0  0.1527284455616188 0.1065771775690181 0  0.1382139529076665 0.05427454456341477 0  0.8749341636311069 0.05110114999892954 0  0.643661668713109 0.05693499781019222 0  1.466879772203159 0.3611261772912453 0  1.990280163552011 0.3564754268533217 0  1.17471064520912 0.2990917256188288 0  0.5202693090594349 0.206382495511728 0  0 0.25625 0  2.2 0.25625 0  2.2 0.05125 0  0 0.15375 0  1.853978576207987 0.35875 0  0.9787513713939683 0.1487523696999336 0  0.240625 0.3722153812029779 0  1.515638456102889 0.2882700110184686 0  0.09048297387599738 0.3637717362208066 0  2.150453692751374 0.2387066338105111 0  1.323782677156475 0.04897634338873398 0  0.8074131292871642 0.3624701995505916 0  1.409375 0.03715320121951221 0  1.406484531114799 0.1087852750766809 0  1.134375 0.03715320121951218 0  1.627401732573545 0.04552157221025036 0  0.1170173172005315 0.1427610859166811 0  2.045405893604797 0.1105340662939892 0  1.255408269734577 0.1577307500159216 0  2.028125 0.03707597992059326 0  0.4743610090857199 0.1421513964721819 0  0.9354010469015898 0.250631300585664 0  0.04420832937638274 0.128125 0  0.8922386349349938 0.0992956419364831 0  0.1197849154434487 0.2663398672460083 0  1.248258025468107 0.2565907092181813 0  0.3746885856929528 0.370723531618974 0  1.203125 0.0366132337404304 0  0.5724622277005015 0.2751253816079333 0  0.3365425205162783 0.08395777655057959 0  2.072662025974815 0.2975086504196739 0  0.4581080832182547 0.3648371739579888 0  0.3874522734668214 0.2295447548840689 0  0.7827853612484443 0.04106550386289586 0  1.887722846421017 0.1760882698830035 0  1.472640588990488 0.1118278026240017 0  1.865937103925594 0.2604137786483804 0  1.463913572748262 0.2030442564990043 0  1.376426316059077 0.3186741374914345 0  0.6641993820150034 0.3141688596240831 0  0.2943117490824315 0.2130987422685822 0  0.3478153998082709 0.1666571081082676 0  0.3427990510599805 0.2575950027870776 0  0.7997118993855807 0.2216171933356366 0  
[...]
<PointData  Scalars="f_37"> 
<DataArray  type="Float64"  Name="f_37"  format="ascii">5.9475703005260727e-01  6.1791830637344070e-01  -3.5165722531838259e-10  -6.7118242335742827e-10  -3.3613628489847475e-01  -1.3184858614031156e-01  -4.0422513350101669e-01  -7.7739677588681300e-01  -6.9042691551914293e-01  4.8402007014764392e-01  2.1539560902585686e+00  5.2983782697813531e-01  -1.0424068629161019e+00  -5.8035254567804018e-01  2.6674041469481458e-01  2.6530110525041917e-01  9.2530760049902860e-01  3.8966827404489696e-01  3.8950876648315130e-01  3.5847132213645483e-01  3.8807312708378694e-01  1.3293914360401196e-01  1.3421194386651930e-01  3.3100753963489082e-01  3.3075826386671109e-01  1.9878333185550423e-01  1.9923333817646752e-01  6.5269934510259003e-02  6.5648894274246666e-02  1.6610836040816679e-01  9.9635070782378279e-02  3.6608513492963490e-01  2.9890097165441765e-01  2.3243624183693257e-01  -1.4047930902286844e-10  4.4521275354138079e-01  4.9802001818731144e-02  3.1237412677777004e-02  3.4753838381971797e-02  -2.0757739358686728e-10  3.6859740069100427e-01  3.7573112988967011e-01  1.0109398812499261e-01  1.9925898086886332e-01  1.6542617599471382e-01  1.0054406850905148e-01  1.6688071514547625e-01  3.3209130998812597e-01  2.9968385294665550e-01  2.9942975118733917e-01  3.6381463415513476e-01  3.6279144644730638e-01  5.5314672821046451e-01  5.4115682250951214e-01  2.3260368035637266e-01  2.6564554709326560e-01  2.3215760806238567e-01  1.3291637350739577e-01  2.5913544582990461e-01  1.2645200619858346e-01  3.2565598617637387e-01  2.0568523264773131e-01  3.3982391040704435e-01  7.3740363982991289e-02  2.5918631400561654e-02  8.2977543656078928e-02  3.8170937461934212e-01  3.8163936494450285e-01  3.9638098700229579e-01  6.8922434883318984e-01  7.1749384643909464e-01  2.4355600944035646e-02  4.0921519361725683e-01  3.9653787487468728e-01  4.0905108271727431e-01  3.5582935643535268e-01  4.9892168882017016e-02  1.7882935436907596e-01  1.5242476477108013e-01  3.4864705901007997e-01  2.8219001113415959e-01  3.0821211603530141e-01  5.8169795112387512e-02  1.0889093526646317e-01  2.2317206170079837e-01  -7.3859139393874769e-10  2.3522761108796836e-01  1.5685309824699495e-01  2.8964441100058536e-01  1.8269473970425554e-01  2.4900859981006906e-01  7.2644617093053893e-02  6.2231187580476555e-01  1.0466147648398760e-01  4.7745890649683592e-01  3.4527914966979528e-01  2.7874448794503609e-01  3.3026909035222041e-01  1.8816949405625105e-01  1.8996905796735603e-01  6.5114660956291393e-01  1.6726628990845979e-02  1.9745096972902457e-02  2.1544525523439287e-01  3.1477356009994206e-01  1.4549079602744580e-01  4.7978387106922993e-01  8.9544167460229085e-02  1.1482019132378898e-01  2.4869051777023038e-01  3.8925289425604921e-02  3.3009252893850494e-01  4.4745680671251703e-01  2.6387168836014718e-01  3.0682847306717154e-01  1.0534490442389699e+00  4.1213032046994780e-01  8.8362455822014296e-01  4.1289144872515748e-01  1.8051441956387601e-01  2.0059259073796404e-01  2.1536165770155025e-01  3.2571616411563331e-01  3.1831477136548464e-01  1.1572648069592420e-01  2.5180916643970402e-01  2.6714417520316208e-01  2.8091875806790167e-01  2.1634142421650118e-01  1.2670036734435064e-01  2.8643835073149720e-01  2.3913391629661565e-01  2.8371417183955733e-01  3.4935180550636613e-01  1.4997816513876205e-01  3.4875573761763584e-01  3.6422764334522784e-01  3.9708395719498463e-01  2.9369158426420700e-01  5.6796203320085914e-01  6.0779022645448577e-01  3.0705540298577544e-01  3.9641412184740066e-01  3.9627669936232596e-01  1.4892301006492983e-01  1.3744742268519536e-01  9.0407864187626447e-02  8.3049329508639178e-02  1.8323457985134625e-01  1.8234120249186786e-01  8.2052839196363150e-02  1.7378041958392355e-02  3.4927906959198646e-01  3.1545679901562923e-01  3.9149154550174681e-01  3.5515352114517956e-01  3.9436025070033809e-01  4.9312335162539717e-01  5.9117564706079240e-01  2.4793681552879704e-01  3.7907404674454853e-01  3.7841251979093105e-01  2.8286515411643093e-01  1.1634426606698793e-01  5.0034612027178980e-02  4.8490526628039474e-02  2.0727750768614589e-01  2.5712882411076149e-01  1.2062657434027224e-01  1.5680219224087286e-02  1.2841646013550309e-01  2.1834570713958096e-01  3.3257184447205618e-01  1.9121911847859588e-01  5.0026112216289642e-01  3.6493464228710348e-01  -1.3967741242886914e-01  1.7117145869826930e-02  3.3620360759687336e-02  4.5102832025610419e-02  6.2137481900656093e-02  7.3501681200632649e-02  3.1379282652891111e-02  2.2329538963001325e-01  1.4149104850197258e-01  3.4041919386407982e-01  3.6294356009236978e-01  -1.9123069566807166e-01  1.1357225066824374e-01  2.0369975014637950e-01  3.9985429528165292e-02  1.6485721245931889e-01  1.5420053289071003e-01  2.4212201452476295e-01  9.5751410229247422e-02  9.2280133520521501e-02  7.0827297281018942e-02  3.6957889854913362e-01  6.3242966482940777e-01  3.7222077457997127e-01  3.7817384133773835e-01  4.3520620866053200e-01  2.4359875048413104e-01  3.3147487708829648e-01  2.6619258533282042e-01  2.2149594492535429e-01  1.7521312595229444e-01  1.9165284723661069e-01  3.9204289298791267e-01  3.9551346726294168e-01  3.8506102029562583e-01  8.5606950048581126e-02  1.3356356757869725e-02  3.8419995923562428e-01  -1.4047930902286844e-10  3.9708300333473490e-01  1.5019175407411534e-01  3.5676290562653407e-01  6.2904513958125063e-01  3.8636945894071151e-01  3.9357323424483281e-01  1.6693929796937240e-01  3.1779708669552414e-01  1.2762557434231923e+00  1.6801045140524404e-01  2.3573233841213312e-01  2.5273283101668986e-01  1.2404238934700959e-02  3.1746626685422275e-01  1.3963370618548360e-01  1.5703159692033680e-01  2.1075658222173399e-01  2.7726398170325400e-01  1.0779888614718454e-01  2.2413871895877280e-01  2.9459925928352665e-01  2.8032911268265792e-01  2.9639716332513694e-01  6.0509342179420743e-02  6.0473819977032411e-02  1.0340883102057147e-01  7.0260344154382037e-02  3.4963097732074216e-01  6.0768767756196891e-02  1.2151746419720096e-01  3.3905898290448661e-01  2.7459303381386968e-01  2.6910344569072309e-01  4.3203397866977633e-01  1.5028939036462799e-01  6.2349521518681761e-01  3.4446412113462532e-01  3.1402925828491624e-01  1.0801201586579551e-01  3.8269559570432110e-01  4.6961751816643293e-01  -6.7118242335742827e-10  3.7651469042399313e-02  4.2173494718298232e-01  4.9569483808375131e-01  3.1993224350364408e-01  3.7453279331900807e-01  1.7705960362704307e-01  5.0936074176453863e-02  2.4760764250956582e-01  4.1746553371062678e-01  8.3539670527773124e-01  -4.7856710282654216e-10  -7.3471010973992750e-10  8.5712165186969658e-01  8.3624246928431900e-02  2.9497265576222920e-01  4.0855137641685740e-01  1.6535937115939464e-01  5.5513960368123694e-01  1.1999235321635852e-02  2.1131156172803273e-01  3.3578434164033272e-01  1.9072172656488443e-01  1.9170162462933302e-01  2.5786993127697266e-01  1.3846469033827649e-01  9.1410036789900284e-01  3.7298734011841084e-02  2.2810932344499987e-01  4.1624284032876671e-02  4.2903507461568607e-01  3.0542238749920292e-01  8.0084886189102777e-01  3.1579100315627512e-01  8.2283792870745887e-01  2.2982051754025237e-01  3.6728943914445533e-01  2.4059999235535059e-01  3.9534873509287494e-01  3.0994853641038816e-01  3.0723045815416183e-02  3.9638857629418817e-01  5.0342432647458857e-01  3.4212923156206637e-01  7.5431165691483545e-02  1.7574167770454760e-01  8.0688350458300750e-02  1.7783028039854540e-01  1.9891284749517923e-01  3.7070036683866026e-01  -1.9288926019008223e-01  4.4802571666960284e-01  3.3716428947872573e-01  3.3827493539934111e-01  1.1538479206122389e-01  1.0288169178538484e-01  2.3355945845630340e-02  3.5752048105986345e-01  3.5294671840542091e-01  2.8954645559579972e-01  2.8280881572508304e-01  2.6813433630211547e-01  1.9436076152330306e-01  -4.0752089127499108e-01  4.0672253140637021e-02  1.4424211909619830e-01  3.7817567843736272e-01  3.6009772703509124e-01  9.3728656132214150e-02  9.9924132749260097e-01  5.0618355850068707e-02  9.2121843866483765e-03  2.6365822449731839e-02  2.9924382091414327e-02  5.6065263572952095e-01  3.5342532316993563e-01  1.4090049011578670e-01  9.8187761766211676e-02  4.6811403363748699e-02  5.2863953405158648e-01  1.9738624124792650e-01  2.4210751115229504e-01  1.7387320560773484e-01  1.3741768722946676e-01  1.5690805595762197e-01  3.2433353712888557e-01  1.2369845743510244e-01  1.1902962667025906e-01  2.8969305094906683e-01  2.8667565670096284e-01  9.6938795614868248e-03  1.0083163654064888e-02  5.8912901198054324e-01  3.7034938780876481e-01  3.4642009450706190e-01  3.0859212873756064e-01  3.1807054018639519e-01  1.3653986400459234e-01  9.7605144976419367e-02  8.0288400807115093e-02  1.5607785307917194e-01  6.1634722634874434e-02  4.7791637514469376e-01  -2.0526792700813584e-01  9.1440510308117937e-02  2.7168401184400132e-01  1.1193994011024920e-01  1.3035262890177890e-01  2.9913052025340137e-01  4.0201926504772734e-01  5.2736530316526564e-01  3.4609058065284262e-02  3.0639979080778967e-01  1.5622671697415455e-01  2.3318109841301890e-01  2.5573509967265217e-02  1.7697603462973555e-01  4.6329762433766614e-01  2.7341189629761614e-01  4.5641405749168779e-01  1.4745085732364510e-01  3.4193978494393257e-01  4.0789399528923109e-01  4.1863102507065958e-01  3.5187482342323428e-01  2.5807180728800289e-01  3.2467348795178158e-01  2.5862101870919690e-01  2.5659883569250591e-01  1.4226909151583997e+00  9.5142398736468535e-03  2.1220676929408772e-01  5.1293440023140228e-02  3.2520640689006564e-01  7.3571583458249171e-02  8.2997711395122492e-02  7.4054319121147363e-02  6.5606355275366901e-02  1.6651117068535135e-01  1.1771380242396055e-01  1.2959997029588455e-01  1.3217928074752314e-01  6.1260172684861980e-01  3.1722589176862903e-01  1.8323371060472229e-01  5.9622579268459963e-01  3.8587466094774557e-02  1.8980151136876369e-01  3.6747167231112121e-01  2.9149115840749795e-01  7.2111777714193825e-01  3.9076294410213264e-01  1.7144887332141692e-01  1.0184052577362745e-01  3.5862443761748264e-01  3.0479734994468749e-01  3.6435526226352277e-01  1.7166360456913982e-01  9.2087969786785040e-01  2.5082893615186808e-01  3.2510629649990691e-01  4.0482367030528606e-02  1.8270582952223047e-01  3.6430064308362781e-01  4.8303071192347496e-01  1.6608876578562917e-01  3.5860531165731641e-01  3.8810033023671042e-01  4.2864887137589913e-01  4.1211178914445601e-01  4.0318811436270813e-01  2.3224371040524580e-01  4.1505585302805786e-01  4.0552565049814215e-01  3.2240496747893871e-01  7.6270961659118430e-01  1.6191240014980665e-01  1.0935057269566921e-01  2.2272094609135379e-01  1.1295642298403370e-01  2.1914308244532743e-01  2.0065210548738246e-01  2.0261367482606019e-01  2.6837300860652485e-01  1.2424468893097014e-01  2.0799830044522083e-01  5.4621696500723425e-02  8.6104825471568469e-01  3.6318582174058184e-01  2.4320759818857471e-01  2.3080268163014112e-01  6.9097848905806936e-01  3.1876510099176836e-01  1.4441096651223376e-01  1.2870489234287527e-01  4.3947922340485679e-01  -7.1104482744349135e-02  -3.3846429563256136e-01  6.6227358258007329e-01  4.2744494181903520e-01  1.3878018363835301e-01  1.4605735638695377e-01  1.6160915620052121e-01  3.7333101724375778e-01  9.2063655321020829e-02  3.5097886567088948e-01  3.3055421327921698e-02  4.1737022134515717e-02  2.1457687239030473e-01  -4.0550251869679632e-01  2.2092695892179270e-02  2.0081296929073119e-02  8.9044063172720594e-03  1.0330286830830007e-01  1.5849584615055592e-01  2.8266848976851300e-01  2.8681365677059822e-01  2.9199594089308473e-01  3.6761156198389927e-01  1.9124349607217123e-01  2.6618363776175230e-01  3.0223710502448464e-01  3.1180815605251871e-01  3.2469767177798298e-01  3.2807070628386120e-01  8.6218724352306771e-03  1.9341281871484723e-02  2.8667090540086726e-01  5.8725702796885236e-02  2.2492315580904400e-02  3.5078826057204476e-01  2.4064285282050005e-01  3.0707523616700566e-01  8.2533295359383793e-02  9.6068562752686437e-02  3.9420912858472101e-01  3.3529689316895273e-01  3.8520710486796844e-01  3.0727982457109893e-01  1.8307144344257342e-01  2.9968020227310010e-01  3.3722135210501719e-01  2.5068585834218071e-01  2.5587465840416307e-01  2.1503242844241865e-01  2.0745590882133100e-01  1.9970528564385595e-01  2.5570644703966627e-01  1.8556565981071768e-01  1.8960486592875643e-02  2.4235592229129638e-01  3.3962597505074171e-01  3.9301561431151344e-01  5.5554351406954372e-01  4.6147553793191165e-01  3.7357504566209199e-01  3.5050172785214168e-01  4.0208933991174012e-01  4.0450374723796134e-01  3.8780715299720042e-01  3.7983393235921065e-01  8.3564613838500182e-02  2.3219912381380231e-01  2.9756308010342286e-01  4.0124173722612805e-01  4.0119907746968525e-01  3.9074591128920888e-01  1.9062345246725590e-01  1.2541047450354489e-01  4.9944718506460352e-02  4.1286254996374623e-02  5.7922234299274025e-02  2.2342446954285458e-01  2.6069415352811609e-01  2.4845815153115039e-01  3.9391177853316389e-01  2.0720048077799982e-01  2.7452174383744610e-01  7.9555436060476919e-03  2.6506273688316699e-02  2.5743663298100705e-01  1.9118624865148717e-01  1.7510068060495837e-01  1.0836865162278055e-01  2.7501022596458774e-01  1.0662408138362871e-01  3.5656958057582699e-01  1.9247947618324238e-01  3.5669466913942161e-01  7.1294320837755921e-03  3.0670521635793369e-01  3.6269695013899123e-01  3.8568382855598304e-01  3.8903037470582197e-01  5.6779050285737542e-01  4.3927750872367632e-01  4.1135988109797339e-01  5.4951326358386798e-01  3.7303792247853057e-01  3.4006097675492469e-01  3.3372803455255745e-01  3.8779292990473213e-01  3.9553867204726789e-01  3.8530298671857294e-01  3.9295967645223823e-01  3.7306187557857257e-01  2.8953718219032720e-01  2.4092957037731685e-01  1.4026121284290893e-01  6.0051950869448152e-02  2.2444824549224279e-01  4.1152303647930398e-02  6.0042021833453703e-02  1.1609621092318467e-01  4.5759352834712524e-02  3.4060031049870715e-01  1.8385776752716337e-01  2.4850060827056009e-01  3.9432827212667226e-01  2.0910930324791666e-01  2.1439679770781023e-01  2.4910855880371516e-01  1.5987931890644694e-01  1.7059235214820917e-01  7.0130540069401642e-02  4.2443974946178409e-01  1.8342273433300960e-01  1.8737500557126743e-01  1.2046443949429944e-01  7.4281704256420944e-02  1.1916398879914401e-01  1.9070406775999155e-01  3.7130452222629123e-01  8.9646576473988188e-02  1.2847459453237017e-01  2.1405582494855951e-01  6.6212065693130637e-02  1.7076920531889769e-01  3.3201913342450134e-01  2.7362494944531085e-01  2.9381940458494854e-01  8.9634026714242876e-01  1.0102898496586674e-01  1.4503554969729585e-01  3.7790157853440998e-01  3.2830082576505770e-02  2.7171713258192749e-02  2.8158058895901716e-01  3.6556701582360424e-01  2.0198879672567840e-01  9.5908361494865224e-01  2.3042021020357517e-01  6.6574144685432213e-02  6.9049545642126273e-02  5.2050353349440015e-01  2.7481927663574525e-02  3.9599549611895996e-01  3.7598752721768036e-01  3.6126796767502012e-01  3.1279821168252209e-01  3.8654834720085185e-02  9.5872445214029905e-02  2.7465760450037802e-01  8.8434217375306448e-02  1.2136763880004664e-01  8.6314206711345084e-02  5.7770934334976889e-02  7.6838886053519967e-03  4.1469491189017371e-01  3.0073826415365418e-01  1.5226143487351890e-01  3.3163231249990743e-01  3.0426852692173301e-01  1.4936039066752144e-01  1.3477289520092184e-01  5.3647366704025712e-01  7.0005626423036399e-02  7.3950268726195034e-02  1.5365434416825460e-01  -4.2250277429678124e-01  -1.0681732791363698e-02  5.1621704702474469e-01  3.8393320419091342e-01  1.4524207539023129e-01  2.6054310488543647e-01  1.6111432696875297e-01  2.9125065881347523e-01  2.0696981654804386e-01  2.9945433011297373e-01  3.6054291314232395e-01  3.8704177480784169e-01  7.8252351071231532e-02  3.6335452202522805e-01  6.2792843657476824e-02  2.3461520935590080e-01  3.1467492872792846e-01  1.5333516033719682e-01  9.3936984033319113e-02  2.7465891016171462e-01  2.4214302104722829e-01  1.2643426979787089e+00  1.0936460904277667e-01  3.7941395650860787e-01  2.2714554595958505e-01  2.3637611916080328e-01  2.4834934638711534e-01  1.2981503536271227e-01  1.7543691883421234e-01  9.8178587169285458e-02  8.7852879023887789e-02  2.5764352252794710e-02  1.6969143062968869e-01  5.5615707584068960e-02  6.1927792234359247e-01  6.1846193847069408e-01  1.5938416412565554e-01  7.2733772499825780e-02  2.1917589110315969e-01  7.6193610013189117e-01  4.0542838623222099e-01  1.5729614052237223e-01  4.3376231446195312e-01  4.5430320707116773e-01  4.2163418923847440e-01  5.3098363412564027e-02  4.5190244433869164e-01  2.0656800594014582e-01  2.9515272288166111e-01  2.2785818214865830e-01  8.7822753941463119e-02  3.1219824202156471e-01  9.1061948380089830e-01  2.1255704484709387e-01  3.4380550926143999e-01  2.4115139816352972e-02  3.4799583528957284e-01  8.9809589545440952e-02  2.3565293373823615e-01  1.3789025520696477e-01  7.7592675550296766e-02  -4.7856710282654216e-10  2.6635614710283351e-01  3.8911519872823652e-01  2.6617584605964889e-01  2.5914836861378771e-01  3.2577362385715469e-01  1.3330130282230845e-01  3.7249110153525988e-01  8.6562601902660068e-03  2.8510955769657792e-01  3.2774504402329922e-02  2.8779928978762420e-01  5.3582182119214472e-01  5.2330560433411977e-01  7.3465809077607233e-02  3.1443806551009312e-01  1.9508275611418902e-01  1.8088263799678841e-01  1.7574591721352681e-01  1.7059593424729452e-01  1.8417861159337795e-01  7.9489920606757788e-02  3.3609622824430663e-01  3.5606313036890763e-01  2.8951803879786708e-01  3.4421205307370217e-01  3.2584147845446759e-01  1.9858545116412907e-01  1.8863796205334429e-01  3.4381929481198631e-01  2.6458600735171162e-01  7.8338429515552421e-02  3.0542405361471464e-01  3.7637956935770756e-01  3.8651856117075989e-01  3.5799879251210537e-01  -1.1172421524349613e-09  3.5676298582876026e-01  2.2906188991528945e-01  2.2253639421295918e-01  3.2892676630133305e-01  2.2209970209516572e-01  3.5314557563650145e-01  1.1357522494608357e-01  3.2511553175940139e-01  2.6211215919802611e-01  3.8099104137146617e-01  5.0892178929919918e-01  4.6369130615212702e-02  2.7951715664850718e-01  3.3170412675751304e-01  3.9529952955042641e-01  1.7380624509977535e-01  1.3547567794357837e-01  4.0303971951979711e-01  3.4577211994832857e-01  3.4695977694388813e-01  4.0000093250409274e-01  -2.1768291159150566e-01  1.0368563220351344e-01  1.5398222783979381e-02  1.6892152581953562e-02  7.0543706138735916e-03  3.9396039857321463e-01  7.9192868528099050e-02  5.1448683281952692e-02  2.7770729635566799e-01  2.1773562916416758e-01  1.1189556894956051e-01  1.0309450378998532e-01  1.4680728210119931e-01  3.5899367202809923e-01  2.4590004016515754e-01  2.5013530384200272e-01  2.7219249365349540e-01  2.0827510748413230e-01  2.3749743548562044e-01  2.7623405727109834e-01  2.7375925040104393e-01  3.3556143181532727e-01  3.9648780103856424e-01  4.0131274017677554e-01  2.2063196046581063e-01  6.0583506439974733e-01  3.6890027910544054e-01  5.9286086388326698e-01  5.1695569571203848e-01  3.5579159854094389e-01  2.5924118292844195e-01  3.5232301303568214e-01  3.5113227436370431e-01  -1.4047930902286844e-10  1.2231234740901265e+00  1.0345046308691734e+00  1.5073030381514296e-01  1.4313053502987877e-01  7.9125877951005501e-03  6.7629926338171775e-02  6.8905623108015990e-01  4.7650558303313817e-01  6.3750439620411214e-01  6.3625401645959068e-01  6.6688880970079056e-01  5.4751620788664390e-01  6.2613700848158704e-02  2.6665866763465537e-02  3.9284269495142965e-01  1.6215436346926801e-01  1.5358023666914292e-01  1.5098791404835171e-01  2.0577924300199452e-01  2.4219723555387646e-01  1.4064458232856031e-01  9.2700837267911632e-02  3.8982566838209348e-01  1.0147622905678624e-01  6.6861798119400143e-02  6.4107370172725053e-02  3.8889270227206502e-01  4.6079932350918590e-01  1.1394621699638778e-01  3.3850936550960131e-01  1.0649770465819014e-01  2.4556333766346894e-01  1.8590654136943427e-01  3.1118438472803955e-01  3.9332374015808019e-01  7.7957521459300919e-02  3.2690200259473357e-01  2.2633505630727579e-01  4.0651186890102475e-01  4.3449974724443624e-01  1.23098459432