<?xml version="1.0"?>
<VTKFile type="UnstructuredGrid"  version="0.1"  >
<UnstructuredGrid>
<Piece  NumberOfPoints="2446" NumberOfCells="4585">
<Points>
<DataArray  type="Float64"  NumberOfComponents="3"  format="ascii">0 0.41 0  0 0 0  2.2 0 0  2.2 0.41 0  0.2404508497187474 0.2293892626146237 0  0.25 0.2 0  0.2404508497187474 0.1706107373853764 0  0.2154508497187474 0.1524471741852423 0  0.1845491502812526 0.1524471741852423 0  0.1595491502812526 0.1706107373853764 0  0.15 0.2 0  0.1595491502812526 0.2293892626146237 0  0.1845491502812527 0.2475528258147577 0  0.2154508497187474 0.2475528258147577 0  1.1 0 0  1.1 0.41 0  0 0.205 0  0.55 0 0  0.55 0.41 0  0.275 0 0  0.275 0.41 0  1.65 0.41 0  1.65 0 0  0.8250000000000001 0.41 0  0.8250000000000001 0 0  1.375 0 0  1.375 0.41 0  1.925 0 0  1.925 0.41 0  1.5125 0.205 0  1.7875 0.205 0  0.6875 0.205 0  0.9625000000000001 0.205 0  1.2375 0.205 0  2.2 0.205 0  0.4687002074688797 0.2068568464730291 0  1.99375 0.2152743902439024 0  2.0625 0 0  2.0625 0.41 0  2.2 0.3075 0  0.4125 0 0  0.4125 0.41 0  1.7875 0.41 0  1.375 0.1486128048780488 0  1.5125 0 0  1.7875 0 0  1.5125 0.41 0  0.8250000000000001 0.2613871951219511 0  0.9625000000000001 0.41 0  0.9625000000000001 0 0  0.6875 0.41 0  0.6875 0 0  0.1375 0 0  0.1375 0.41 0  1.2375 0 0  1.1 0.1486128048780487 0  1.2375 0.41 0  1.65 0.1486128048780487 0  1.126715909090909 0.2793064024390244 0  1.676715909090909 0.2793064024390244 0  0.8517159090909092 0.1306935975609756 0  1.348284090909091 0.2793064024390244 0  0.34375 0.3032389320646208 0  1.894702181800738 0.1282910975492754 0  2.092797818199262 0.1282910975492754 0  1.85625 0.3075 0  0.61875 0.3075 0  0.61875 0.1025 0  0.3648540804333487 0.1240075933101478 0  0 0.3075 0  0 0.1025 0  2.099172119769978 0.25625 0  0.48125 0.09238439620688085 0  0.5781001037344399 0.2059284232365146 0  0.48125 0.3196743479159776 0  0.7265881057911006 0.3055240343720796 0  1.99375 0.08395950269330846 0  1.459960956013612 0.3075 0  1.569025960719943 0.2986889805672169 0  0.75625 0.08213100772579164 0  1.03125 0.3278689922742084 0  0.923871252904788 0.3078247185783941 0  1.959375 0.3126371951219512 0  1.749222215368287 0.1025 0  1.275777784631713 0.1025 0  2.2 0.1025 0  1.225938124459196 0.3075 0  1.550777784631713 0.1025 0  1.000777784631713 0.1025 0  1.44375 0.07430640243902442 0  1.16875 0.07430640243902437 0  1.899250267340833 0.2229966846119207 0  0.1020898364287272 0.3140258291809757 0  1.766482954545455 0.2934032012195123 0  0.3405058858996321 0.2119987970531874 0  0.7710785630958338 0.1710968191298857 0  1.046078563095834 0.2389031808701144 0  0.2 0.3400647632937836 0  1.421109702350723 0.2261157654379721 0  0.2800464974185557 0.08982544815605742 0  0.098916018031319 0.09171660955420841 0  2.13125 0 0  2.118919042110979 0.3422084711244843 0  1.30625 0.41 0  0.89375 0 0  1.597888256393107 0.2173787389261347 0  0.20625 0 0  1.829299675393195 0.07400700849299596 0  1.71875 0.41 0  1.16875 0.41 0  2.038220665644273 0.332420740103091 0  0.34375 0 0  0.417496017710808 0.2696595573092803 0  0.2 0.07687845740457822 0  0.9295982307099278 0.1343158415898188 0  0.07390688010811153 0.1697064032433452 0  0.5238366813727013 0.2578302467013575 0  0.05452951551825875 0.25625 0  0.5229630068078351 0.1548816096928243 0  1.452769549894695 0.1548122580621249 0  1.369219062229598 0.07430640243902442 0  1.30625 0 0  0.8504409521244898 0.3356935975609756 0  0.8821881244591965 0.205 0  1.720943423819132 0.1714577452753128 0  1.157188124459196 0.205 0  1.094219062229598 0.07430640243902437 0  1.03125 0 0  1.304056576180868 0.1714577452753128 0  1.67579304192913 0.07430640243902437 0  0.2751941921308361 0.3346083473122598 0  1.209670467133757 0.1362100266964769 0  1.025335513626278 0.1700681449722324 0  0.7562500000000001 0.41 0  1.58125 0 0  0.7567170593862014 0.2409196493502535 0  0.6926714215682891 0.1272249611432207 0  0.4139715849905988 0.3397932387114203 0  0.9840787304190477 0.2717749043358119 0  0.06875000000000001 0.41 0  0 0.35875 0  0.9281250000000001 0.06276726142697993 0  0.5507396469029935 0.3219409231578227 0  0.5504468037989405 0.09136885600634273 0  1.58125 0.41 0  1.631724228912893 0.3381867502687533 0  1.825608881788174 0.14499488549201 0  1.85625 0 0  1.44375 0 0  1.44375 0.41 0  1.85625 0.41 0  2.13125 0.41 0  0.7562500000000001 0 0  0.89375 0.41 0  0.4812500000000001 0 0  0.34375 0.41 0  0.4812500000000001 0.41 0  0.20625 0.41 0  0.06875000000000001 0 0  1.16875 0 0  0.61875 0 0  0.61875 0.41 0  1.03125 0.41 0  1.71875 0 0  1.99375 0 0  1.99375 0.41 0  1.340625 0.3489494290853124 0  1.134375 0.3489494290853123 0  1.700180620188976 0.3438659752031281 0  2.135782184673599 0.07126652247502523 0  1.668441847249787 0.2129203728327609 0  1.295782514339747 0.2378437748815763 0  0.8233075729931248 0.06842334294821524 0  1.409375 0.3520314716057996 0  0.403505597322782 0.182067236678212 0  0.378125 0.05794951541303489 0  0.3043468223249023 0.1518321115979534 0  2.129248544730567 0.1906135162504124 0  2.060771381434487 0.1989445750470348 0  2.013252586573865 0.1496169464686054 0  1.942766402200229 0.1734448904596831 0  1.895522487186454 0.06076163953489683 0  2.069553871656643 0.06605731020975725 0  1.274680914880868 0.3520219391081363 0  1.614713220494657 0.09473434380863296 0  0.7899021319497519 0.3149123934144827 0  0.69518737419149 0.0634051089053758 0  0.2971740475496061 0.2592172353407536 0  1.72990325744076 0.2380068107952482 0  1.356580098625191 0.2120393231351682 0  2.034370752044885 0.2668681600792073 0  1.51768709249349 0.3426260931494756 0  1.561883724969884 0.1650446847858835 0  1.197344062229598 0.2523725417393646 0  1.804085235518364 0.3468178408964637 0  1.817887819205233 0.2589243285818559 0  1.905897727272727 0.3485060975609756 0  0.6719798073392919 0.2688965171178177 0  0 0.05125 0  0.653125 0.35875 0  0.6396896119294488 0.1627615407790282 0  0.4274150154087412 0.1242548552168279 0  1.192836486056382 0.3562350748565544 0  0.8279124365364005 0.183856489168822 0  1.097485222388854 0.2083571153401724 0  1.28257088594801 0.2944411014911587 0  1.474860187679412 0.2504218616229368 0  1.406767003493824 0.2829282258560709 0  0.446875 0.04619219810344041 0  0.515625 0.04585361801037557 0  0.592043440706648 0.05125 0  1.845656689180403 0.1998310418452388 0  2.144958525570388 0.2909790873294231 0  0.6171090763650112 0.2492366900333857 0  2.2 0.15375 0  0.5145586920831158 0.3648371739579888 0  1.57794966442982 0.3540357145964566 0  0.721875 0.3633107922168974 0  0.0496154796471391 0.333125 0  0.5843750000000001 0.3662560860076676 0  0.5810878747760798 0.1474002776121195 0  1.508991196088596 0.1421783375065625 0  0.8840670607017558 0.2640994375393898 0  0.09776612425612034 0.2204896805326566 0  1.50436820029908 0.06143401634903343 0  1.223857000523521 0.0823554862453532 0  1.153316824384777 0.1289850171317837 0  2.148922302309752 0.1258841779285271 0  0.309375 0.04312325590431198 0  1.621993280276081 0.2841214267927899 0  1.550118654119087 0.2461998729100966 0  1.327182649291491 0.1216967252533594 0  1.051977450479407 0.1221382572915816 0  1.753125 0.04556020050186112 0  1.271875 0.04556020050186116 0  0.9816084133102366 0.05126138213476004 0  1.039051841454368 0.0572224914831029 0  0.9719230514536006 0.3480477870845102 0  1.94956388244759 0.1180512551534177 0  1.949997712993411 0.04965831614304109 0  1.771961817615021 0.1530278789497521 0  1.909246823951428 0.2812757146784527 0  0.2459536687882397 0.04668633953831142 0  1.948575539857022 0.2445328248721197 0  1.697271520964565 0.1233917627620729 0  0.7964897648514618 0.1211426571931604 0  1.065625 0.3689344961371042 0  1.085849084308977 0.3170853572226867 0  0.4702981435440001 0.260434880697798 0  1.577403511714593 0.05463601888079143 0  0.05622663515370135 0.05493816910862376 0  0.3267207591099919 0.3566194660323104 0  0.9003051618565143 0.3564049499960621 0  1.751571320346033 0.3651102912045228 0  0.1583785085108421 0.2994699345738728 0  0.1455283439499995 0.3542795598723423 0  2.2 0.35875 0  0.2347662494194072 0.298325008655211 0  0.1527284455616188 0.1065771775690181 0  0.1382139529076665 0.05427454456341477 0  0.8749341636311069 0.05110114999892954 0  0.643661668713109 0.05693499781019222 0  1.466879772203159 0.3611261772912453 0  1.990280163552011 0.3564754268533217 0  1.17471064520912 0.2990917256188288 0  0.5202693090594349 0.206382495511728 0  0 0.25625 0  2.2 0.25625 0  2.2 0.05125 0  0 0.15375 0  1.853978576207987 0.35875 0  0.9787513713939683 0.1487523696999336 0  0.240625 0.3722153812029779 0  1.515638456102889 0.2882700110184686 0  0.09048297387599738 0.3637717362208066 0  2.150453692751374 0.2387066338105111 0  1.323782677156475 0.04897634338873398 0  0.8074131292871642 0.3624701995505916 0  1.409375 0.03715320121951221 0  1.406484531114799 0.1087852750766809 0  1.134375 0.03715320121951218 0  1.627401732573545 0.04552157221025036 0  0.1170173172005315 0.1427610859166811 0  2.045405893604797 0.1105340662939892 0  1.255408269734577 0.1577307500159216 0  2.028125 0.03707597992059326 0  0.4743610090857199 0.1421513964721819 0  0.9354010469015898 0.250631300585664 0  0.04420832937638274 0.128125 0  0.8922386349349938 0.0992956419364831 0  0.1197849154434487 0.2663398672460083 0  1.248258025468107 0.2565907092181813 0  0.3746885856929528 0.370723531618974 0  1.203125 0.0366132337404304 0  0.5724622277005015 0.2751253816079333 0  0.3365425205162783 0.08395777655057959 0  2.072662025974815 0.2975086504196739 0  0.4581080832182547 0.3648371739579888 0  0.3874522734668214 0.2295447548840689 0  0.7827853612484443 0.04106550386289586 0  1.887722846421017 0.1760882698830035 0  1.472640588990488 0.1118278026240017 0  1.865937103925594 0.2604137786483804 0  1.463913572748262 0.2030442564990043 0  1.376426316059077 0.3186741374914345 0  0.6641993820150034 0.3141688596240831 0  0.2943117490824315 0.2130987422685822 0  0.3478153998082709 0.1666571081082676 0  0.3427990510599805 0.2575950027870776 0  0.7997118993855807 0.2216171933356366 0  
[...]
<PointData  Scalars="f_37"> 
<DataArray  type="Float64"  Name="f_37"  format="ascii">3.8817944792408682e-01  4.3797692910600416e-01  -1.4477423544247551e-10  1.2615515148258188e-10  -4.2011129337002134e-01  -4.0542060633716293e-01  -4.8396747848062971e-01  -7.5009740293848870e-01  -7.0462979659905312e-01  3.9054717799026206e-01  1.9567872375671118e+00  3.0866193704311212e-01  -1.1982226948742751e+00  -6.4837777089525572e-01  1.5421754005449509e-01  1.5391214646013518e-01  7.3850169061099213e-01  -7.3345535325348724e-02  -1.0709578592464809e-01  -3.3428039700635202e-02  -2.4240888474933438e-03  7.6982043171307538e-02  7.6978526546941331e-02  1.8995185668316533e-01  1.9074569281462786e-01  1.1533471573473088e-01  1.1524466818920683e-01  3.8167259752161765e-02  3.8328948860132446e-02  9.6116584638094180e-02  5.7617070130518533e-02  1.7122806147812833e-01  1.7110983925886949e-01  1.3458082265112589e-01  2.9280805016668407e-11  -1.7201270683091027e-01  2.8777546665266010e-02  1.8866130806117480e-02  1.9638652792206824e-02  1.3072866702510747e-10  -1.3306785590156095e-01  -1.4072172794298485e-01  5.7928695188750622e-02  1.1540572704398359e-01  9.6285413896368632e-02  5.7859286086304251e-02  9.6552406993114889e-02  1.8120149464819760e-01  1.7574894225001317e-01  1.7493171504212246e-01  7.5253010427746236e-02  5.9146051793757835e-02  3.4745115872161314e-01  3.1455329999909165e-01  1.3459203093734393e-01  1.5368672127133057e-01  1.3456782555129468e-01  7.6847922416513698e-02  1.4998888755879911e-01  7.3130565641773115e-02  1.7993337510703783e-01  1.1909091661842768e-01  -4.0546289648721656e-01  4.2618843474413422e-02  1.4944636163968151e-02  4.8074622129184418e-02  3.3405352225334667e-02  1.7235636462876774e-02  -5.5017589807368594e-01  4.8533516159918194e-01  5.3737618243120355e-01  1.4073070862775575e-02  -9.8682791787504540e-02  2.7021750830632452e-01  -1.4762026880718027e-01  1.2749187738371565e-01  2.8811225019792476e-02  1.0344443889811372e-01  8.8159415512344810e-02  1.4062588017338232e-01  1.6385584072961989e-01  1.7899919921414886e-01  3.3654248381674960e-02  6.2925244604269029e-02  1.2926557031836272e-01  -1.2496787477318978e-09  1.3615872606632956e-01  9.0775701163930231e-02  1.6775413011043308e-01  1.0582723448117842e-01  1.4429722031366674e-01  4.2015900186042072e-02  4.2740912126278563e-01  6.0565836914496345e-02  -6.4434773962495662e-01  1.6869294590823003e-01  1.6106953548945321e-01  9.7112071154085725e-02  1.0892356177541064e-01  -2.4212985909440077e-01  4.8240378982169668e-01  9.3734278782513277e-03  1.1237032872120268e-02  1.2492018619568281e-01  1.8617319934254570e-01  8.4153462928379288e-02  1.7299666435285238e-01  5.1817584458169225e-02  6.7115551595364017e-02  1.4404183385418060e-01  2.2610191576048221e-02  -1.3231442037355515e-01  -6.0193923961500007e-01  6.7770559927430737e-02  1.7550252408817804e-01  8.7617257111765667e-01  9.0827079785361586e-02  6.8828339136365491e-01  1.0175264523789990e-01  1.0449135157017062e-01  1.1623136721849281e-01  1.2519026793254842e-01  1.8891614439543378e-01  1.7744326034169777e-01  6.6893856318652217e-02  1.4572114540594219e-01  1.5477099824308271e-01  1.6389757196242968e-01  1.2528244492359758e-01  7.3138193731681372e-02  -1.1493670825840643e-01  1.3846982967202712e-01  1.6366382566004764e-01  1.5618512070253560e-01  8.6683203788998492e-02  1.6075781645548354e-01  1.0406149115513973e-01  -2.0857706887848396e-01  1.6967665856533232e-01  3.7631475633596384e-01  4.0030049334020640e-01  1.7964836380885474e-01  -6.1565293897157418e-02  -2.5786908742389519e-02  8.6261216373581084e-02  7.9435319539781668e-02  5.2248580472660761e-02  4.7832339020521614e-02  1.0580339647524761e-01  1.0561561781165606e-01  4.7910617161077786e-02  9.6858367538221139e-03  1.5290884409137173e-01  1.8729866450975846e-01  -9.3070394595266920e-02  -1.0665138672941289e-01  -1.3562219477758569e-01  1.6579287051328961e-01  4.2426109715542060e-01  1.4413357757905798e-01  -4.0761750098019890e-02  -2.9797451209854768e-02  1.6417988232623634e-01  6.7170696997749219e-02  2.8751143598832334e-02  2.8488715463015971e-02  1.2010183461457809e-01  1.4904348165265766e-01  6.9801209495598204e-02  8.9009007643505757e-03  7.4248067922045191e-02  1.2642879915040919e-01  1.8725830684750228e-01  1.1052974096853170e-01  -5.4700139664301117e-01  -2.0132007822774717e-01  -5.6222407691156595e-01  9.8867983859415049e-03  1.9413124992121025e-02  2.6037337651316418e-02  3.5913954211180196e-02  4.2451785237263943e-02  1.8065847593084293e-02  1.2939427458325023e-01  8.1796872921459138e-02  1.6915731659790886e-01  6.1517648723999674e-02  -4.6904493498803290e-01  6.5692514034975946e-02  1.1794434377561698e-01  2.3113309679993463e-02  9.5354396281884177e-02  8.9217930612686444e-02  1.4015547947664886e-01  5.5443970274565456e-02  5.3395324422150121e-02  4.1133687705060193e-02  1.2812084660515943e-01  4.5093069620905984e-01  2.1651426744863384e-02  1.6141711918727070e-01  -3.3785954932520718e-01  1.4084521387165985e-01  1.7591879081012371e-01  1.5390101986416371e-01  1.2828186432350616e-01  1.0138245584973897e-01  1.1093475312565562e-01  -1.1393386406384498e-01  -7.0278319277974011e-02  -6.6702312418756946e-02  4.9515235208475311e-02  7.6989834830486163e-03  1.8174884605991845e-01  2.9280805016668407e-11  -1.2395822985491914e-01  8.6878875320693535e-02  1.1623054740922838e-01  4.2365172805757795e-01  -7.7462754890310986e-02  1.3534043460398151e-01  9.6606404469515933e-02  1.8022127239970975e-01  1.0868919395981027e+00  9.7395342064503954e-02  1.3648856396753239e-01  1.4630530551996654e-01  7.1552501300288810e-03  -1.3283223841625560e-01  8.0741290281301739e-02  9.0839134384245734e-02  1.2208321481531215e-01  1.6042841475489875e-01  6.2381343554087164e-02  1.2979277100393485e-01  1.7169281322972996e-01  1.6279987434278373e-01  1.7334056735330489e-01  3.4962097784325005e-02  3.4842218483459517e-02  5.9784354860239537e-02  4.0681102986133193e-02  2.8647755786242722e-03  3.5162486607541898e-02  7.0228143750547589e-02  1.7116759148729868e-01  1.5907363367488719e-01  1.5597419755781028e-01  -2.4165246773342230e-01  8.7023775463047612e-02  4.4433144381704309e-01  -1.3787967319753985e-01  1.8592814788229522e-01  6.2673466741595699e-02  1.9728016027948911e-01  2.8902564029021305e-01  1.2615515148258188e-10  -2.0833835390464073e-01  2.7537819193740526e-01  3.4199687385836869e-01  1.8832647480741796e-01  -1.7301674619943329e-02  1.0246180177278788e-01  2.9391887252739862e-02  1.4333362395482080e-01  2.0639930024835587e-01  6.3941392004588349e-01  -1.2559071577321344e-10  -4.3461645679128311e-10  6.7660243637151996e-01  4.8422022011054978e-02  1.6970850539165233e-01  5.6499653753730415e-02  9.5638788661594185e-02  3.6764601074479597e-01  6.9367484711416617e-03  1.2263666332571073e-01  1.8555538261049601e-01  1.1063215106351752e-01  1.1103890113137402e-01  1.4917105087149099e-01  7.9960746295831206e-02  7.5218242877569874e-01  2.1479859183250422e-02  1.3209802656711775e-01  2.3945335191628201e-02  -1.1145417221063014e-01  1.7482686988175777e-01  6.2294249414136815e-01  1.8149195707006602e-01  6.2738595096279071e-01  1.3306717994651016e-01  -1.4576552053473715e-01  1.3938838850951582e-01  9.5129104645533272e-02  -3.1439996680797949e-01  1.7774785350353730e-02  -1.4192082038075704e-01  -7.7572894053225849e-01  1.7402353432684195e-01  4.3608640192061690e-02  1.0174604235829666e-01  4.6692666254765279e-02  1.0291902969180605e-01  1.1509673562427321e-01  6.7608645635892084e-02  -4.8247970821599184e-01  -6.4961007773032853e-01  -6.5992264235032960e-01  1.7431308749789390e-01  6.6742698928216437e-02  5.9508496736851331e-02  1.3108950945967148e-02  1.6081123293790248e-01  1.3584565919549951e-01  1.6680653290367822e-01  1.6371801517622703e-01  1.5507859812459712e-01  1.1254217849507100e-01  -4.7595058342413088e-01  2.4157177546741054e-02  8.3400659434279323e-02  2.0215537614168161e-01  1.4857170937559019e-01  5.4283068451893034e-02  8.1267625231505081e-01  2.9271113249504824e-02  5.2463800207212192e-03  1.4521220026606083e-02  1.7416846975329480e-02  4.0406336663879616e-01  1.2386076053440928e-01  8.1511865791904434e-02  5.6728453355923823e-02  2.7061258768139983e-02  2.7215626702117884e-01  1.1426970035481723e-01  1.4015103504040036e-01  1.0071183648648700e-01  7.9495526923789403e-02  9.1133977223402218e-02  1.9124689498178291e-01  7.1665783545329251e-02  6.8603484364435544e-02  1.6963501921929974e-01  1.6721845210546146e-01  5.5030642456625539e-03  5.7252856670209551e-03  3.8570791526638465e-01  4.0419806434412675e-02  1.6027461661559878e-01  1.7488493275864783e-01  1.7757898064461139e-01  7.8958016486344665e-02  5.6299061668555146e-02  4.6409525471329795e-02  9.1210261810641027e-02  3.5523524975158392e-02  -5.8163632214747329e-01  -3.6748133922075116e-01  5.2885232493207847e-02  1.5751605116703707e-01  6.4786072911578924e-02  7.4999660826540401e-02  1.7354848084188007e-01  -2.1394918477206290e-01  2.4948784222551063e-01  1.9967370093453309e-02  1.8152053618807826e-01  9.0399189183508713e-02  1.3501051083101212e-01  1.4757888648449265e-02  1.0240184825016291e-01  2.0472116822110289e-01  1.5798289951790503e-01  -2.6907243474855375e-01  8.5295005067028792e-02  1.6934073953072115e-01  -4.0917354990057614e-01  -2.7689363863790983e-01  1.6283848317306776e-01  1.4943436976852875e-01  1.7967749021619020e-01  1.4964339503476159e-01  1.4848781391326468e-01  1.2463406256536869e+00  5.5024850237741455e-03  1.2294617765399246e-01  2.9446589547526034e-02  1.8410474709925959e-01  4.3040877762948661e-02  4.7840342861434182e-02  4.3213036889748833e-02  3.7890236099787762e-02  9.6370247318233557e-02  6.8035518715694271e-02  7.4537821340861940e-02  7.6378647654794768e-02  4.3482808858202615e-01  1.8463651741783729e-01  -3.3072381520927013e-01  3.8845624957030778e-01  2.2731925283684874e-02  1.0989840310010505e-01  1.5627449690630510e-01  1.6930931233876115e-01  5.2081222743272282e-01  -7.1151307414890091e-02  -2.7810393098853126e-02  5.8860454159259216e-02  9.5604011747123935e-02  1.7969717214086856e-01  7.6104869840777481e-02  9.9339402401790511e-02  7.4060960093091910e-01  1.4517721229972960e-01  1.8495002041864370e-01  2.3348240977000730e-02  1.0570837728867717e-01  -3.0808470803283666e-02  2.1908449349992468e-01  9.6091640931612141e-02  -6.8344314837455344e-02  2.0678365709386173e-01  6.4054338090433344e-02  -2.9012242275575528e-02  2.1382015598750079e-01  -5.4415181412195046e-01  -8.4634425194124382e-02  2.5556767669749147e-01  1.9127191947741781e-01  5.6260689742049863e-01  9.3728126657169508e-02  6.3236985108362703e-02  1.2896351399867398e-01  6.5277412823315534e-02  1.2694183370264894e-01  1.1627768063474124e-01  1.1748228990690542e-01  1.5538746472342899e-01  7.1823287086312027e-02  1.2045735516843160e-01  3.1544044934098563e-02  6.8846502222115991e-01  -2.2660721343097706e-01  1.4080723382707050e-01  1.3365373402597786e-01  5.1350476561728320e-01  -1.5676259299538423e-02  8.3470447985769192e-02  7.4413689170802308e-02  -7.1138999350554266e-01  -1.8841652740455411e-01  -3.8441651341172905e-01  4.8130000484859153e-01  5.7139398192733188e-03  7.9958113653746860e-02  8.4471362935760283e-02  9.3613699746546861e-02  9.3007288407334063e-02  5.2994869579039566e-02  1.3885765757532967e-01  1.9094774526574699e-02  2.4120778326827491e-02  1.2431001835982233e-01  -4.8566793736873654e-01  1.2739351868974449e-02  1.1617425879407903e-02  5.1551725017792661e-03  5.9837883750708427e-02  9.1786162737625299e-02  1.6304776460278250e-01  1.6563249625810414e-01  1.6790128593674031e-01  2.9463020335707635e-02  1.1080002330837369e-01  1.5428314383784084e-01  1.7694649780423599e-01  1.8415332167733828e-01  1.9068025416350073e-01  1.9156985072925703e-01  4.8951368545888463e-03  1.1109048296940528e-02  1.6688431008815266e-01  3.3966121809602519e-02  1.2740859295578126e-02  1.5123512882126922e-01  1.3929636117024619e-01  1.7464086187946673e-01  4.7710251358855905e-02  5.5541661508006365e-02  2.2830489038497390e-01  -1.7847414870661496e-01  -1.4384776888644488e-01  1.7759138816393122e-01  -5.7269520713816513e-01  1.7372806762385704e-01  1.7389988618401506e-01  1.4527094494760956e-01  1.4888230579962189e-01  1.2464838098339863e-01  1.2012865238814485e-01  1.1541517589484004e-01  1.4804717112944682e-01  1.0743442250884672e-01  1.0951224991321947e-02  1.3973010330311361e-01  1.7800180099676363e-01  -1.0454165625014603e-01  -6.6904005011422751e-01  -5.3023344967744523e-01  -1.3987378857094668e-01  -1.3979294832140121e-01  -1.0689188602209723e-01  -9.9278347863293905e-03  -3.9496228038905797e-02  -1.8100013652792520e-02  4.8316876492187272e-02  1.3444363865461889e-01  1.7094107924618673e-01  -5.3311003905113501e-02  5.8839932713940425e-02  2.5701491603899011e-02  1.1029058329551485e-01  7.2296298633161116e-02  2.8847395007563285e-02  2.3844598756524369e-02  3.3509645572547327e-02  1.2958102032607369e-01  1.5139142534000885e-01  1.4419999446397486e-01  -8.5989164316912670e-02  1.2023585414733376e-01  1.5933276980194366e-01  4.5578106521864470e-03  1.4532839539023467e-02  1.4914518220879389e-01  1.1064040257627272e-01  1.0090274668253356e-01  6.2492189908940038e-02  1.5919135972144405e-01  6.2196347574433188e-02  1.2088998960419427e-01  1.1087256008843775e-01  1.1290985139363820e-01  4.6087050802431423e-03  1.8082112625273025e-01  -1.3384099675638556e-01  -1.1271304500429020e-01  -1.4137909323804593e-01  3.9807313909697750e-01  7.8913462468745074e-02  6.0711281030780613e-02  3.5392768223473653e-01  6.7728848531421462e-03  1.7791501785984107e-01  -9.4620603350970126e-02  -7.3939585251173640e-02  -1.2421139997173278e-01  -6.5689011388381846e-02  -7.9264512420836930e-02  2.4775070529568372e-02  1.6923665670244342e-01  1.3944771568544920e-01  8.1431508336462274e-02  3.3970394174111088e-02  1.2974506897601948e-01  2.3868059286969147e-02  3.3729151790274040e-02  6.7441451895469587e-02  2.6413751501301291e-02  1.7318818431317720e-01  1.0644027105696290e-01  1.4383849608989493e-01  -3.3082448366424788e-01  1.2106623429810588e-01  1.2415742782625960e-01  1.4421776628845631e-01  9.2496904665651150e-02  9.8665715882267635e-02  4.0665176164505476e-02  2.3433732829296686e-01  1.0605911605512304e-01  1.0810207646961645e-01  6.9678700694751544e-02  4.3058597221390743e-02  6.8885235890022933e-02  -1.3749207575367831e-01  1.6701053051318770e-01  5.1810207541558150e-02  7.4290751101292338e-02  1.2394203487523146e-01  3.8363447982472987e-02  9.8605207023002989e-02  1.8392858559065023e-01  1.5841491620242240e-01  1.7231851440502885e-01  7.0502611888773392e-01  -2.6171673514614630e-01  8.3964163988870494e-02  -2.4059957308466311e-02  1.9199938199471505e-02  1.5603878399457163e-02  1.6323220567144284e-01  6.4252396591214997e-02  1.1696171347803874e-01  7.6453791188766285e-01  1.3344635063938826e-01  3.8498286466429263e-02  3.9929029726447060e-02  3.3224968673836308e-01  1.5890597602849613e-02  2.2879791008078798e-01  8.8914691336836202e-02  1.2910400589137305e-01  1.7727833186947903e-01  2.2395137699577176e-02  5.5304146215599530e-02  1.5867507069973164e-01  5.1267540217969323e-02  7.0190460532873117e-02  4.9939436297617830e-02  3.3331913639222208e-02  4.4348617580750142e-03  -1.8533985969669359e-01  1.7199832096982240e-01  8.8079919027600248e-02  1.8124231521473588e-01  1.7826466595970047e-01  8.6434751467093021e-02  7.7809842133849547e-02  4.0229900349880926e-01  4.0774815956751545e-02  -5.8025047371443306e-01  8.8792494162062904e-02  -4.2782780842330792e-01  -4.9394782957931344e-01  2.9849817876084234e-01  1.0646321503980860e-01  8.4303055890574213e-02  1.5083475595206880e-01  9.3226582286840887e-02  -1.1226097755726659e-01  1.1996639307964872e-01  1.7257080360695959e-01  8.3279671882200187e-02  2.4002775005985219e-01  4.5589856507771052e-02  1.0055188297425546e-01  3.6282378084904074e-02  1.3583926219449466e-01  1.7841994160715047e-01  8.8923163270345176e-02  5.4339947191214551e-02  1.5919616638544554e-01  1.4014669543853736e-01  1.0645972047330012e+00  6.3260343374653902e-02  -4.5516370634251437e-02  1.3152957852469346e-01  1.3684406832062121e-01  1.4374277976869052e-01  7.5059508679637829e-02  1.0142429497233056e-01  5.6812589647666348e-02  5.0842573558026530e-02  1.4882221544863999e-02  9.8300991811395358e-02  3.1673287892301394e-02  4.3848306833095563e-01  4.3677418253761885e-01  9.2221877547908643e-02  4.2021706573231149e-02  1.2696028900203329e-01  5.6513892027172130e-01  -1.7361115572237051e-01  9.1013091396193901e-02  1.0723971450288047e-01  1.3886001425681122e-01  -2.1167320303307444e-01  3.0644071286245810e-02  -5.3136192082956368e-01  1.1968032110281464e-01  -1.8585373639782357e-01  1.3194806219450139e-01  5.0673929518337123e-02  1.8482543561250661e-01  7.1857728992891212e-01  -5.2266005202768151e-01  -1.4755672973520778e-01  1.3858885563199768e-02  1.4913666148176924e-01  5.1983023114641459e-02  1.3642653085860515e-01  7.9707119434350965e-02  4.4914892632970514e-02  -1.2559071577321344e-10  1.5417927072492466e-01  -3.9714728134605845e-02  1.5392365222767462e-01  1.4992599366431736e-01  1.7792457434084150e-01  7.7077083120857925e-02  1.7972385076676653e-01  4.8456773262183670e-03  1.6468954220117604e-01  1.8947245936894626e-02  1.6729770998074203e-01  3.5204800580267454e-01  3.3626999920880413e-01  4.2513871176855490e-02  1.8087194290070013e-01  1.1293934786306914e-01  1.0468392812346088e-01  1.0167493811712003e-01  9.8704935097307392e-02  1.0643503367645780e-01  4.6074903143448018e-02  1.8797510943543969e-01  1.0270027387215049e-01  1.6867667558395419e-01  1.6805068196244208e-01  1.7812989261039794e-01  1.1494502680181913e-01  1.0918032690372184e-01  1.6364058306435844e-01  1.5336585519567852e-01  4.5304223185163521e-02  1.7606197098829443e-01  1.5033851252042771e-01  9.5224536881753044e-02  1.1005501749767720e-01  -3.5984768071699453e-10  1.6473703092812728e-01  1.3262229673014841e-01  1.2886612245980542e-01  1.9163370283758682e-01  1.2870771659874208e-01  1.3769859340910445e-01  6.5581585785553315e-02  1.8212245237216407e-01  1.5181800201591372e-01  -3.6448732016440291e-02  -6.2320227978209120e-01  2.6897262063838738e-02  1.6252858226884107e-01  1.7924684926386367e-01  -5.8902542876099563e-02  1.0059258701518732e-01  7.8307536815440323e-02  -1.1859661754162343e-01  1.6012729509217397e-01  1.4782706797590947e-01  -7.7732937317360765e-02  -3.6529549244826592e-01  6.0121017854810166e-02  8.8759437397556672e-03  9.7483413483620222e-03  4.0731730886269879e-03  -1.1596708970249503e-01  4.5811275568768343e-02  2.9687222402466466e-02  1.6046305015871737e-01  1.2611152753655047e-01  6.4786486673546431e-02  5.9507055868785130e-02  8.4902603391871376e-02  1.6522492558201371e-01  1.4234329303683596e-01  1.4481261781902924e-01  -2.2535336673028361e-01  1.2059375867321491e-01  1.3741059636237912e-01  1.6008357727870554e-01  1.5868628570960522e-01  1.7841529550038845e-01  -1.3157528501502322e-01  -1.3760381987464759e-01  1.2784226159346881e-01  4.3532081642248577e-01  7.7956044042409162e-02  4.2453771270977148e-01  2.8444914987858727e-01  -2.8440724368425940e-02  1.5025126967302924e-01  -9.6189477096749201e-02  1.5853342638347398e-01  2.9280805016668407e-11  1.0414658380957031e+00  8.4407338796635911e-01  8.7158765679112071e-02  8.2773810095554984e-02  -1.6629755764498802e-01  3.9069124041262469e-02  4.8574878910011704e-01  -7.2761518559493099e-01  4.3099569704200563e-01  4.3529255616844786e-01  5.0574481145919592e-01  3.8873451285413380e-01  3.6167988766251546e-02  1.5398541403213298e-02  2.6798849837851848e-03  9.3821069849132882e-02  8.8846982189108553e-02  8.7370729909409320e-02  1.1920245167799202e-01  1.4022592593981376e-01  8.1351868281026030e-02  5.3599154656675300e-02  -9.8548094628586852e-02  5.8816269552324149e-02  3.8679568405330537e-02  3.6932765819875660e-02  -2.5307103079499571e-01  -4.0121866232433645e-01  6.6082206891753509e-02  1.7269500531072715e-01  6.1549910396794097e-02  1.4158110604844351e-01  1.0754802575497630e-01  1.7635035707577926e-01  -7.2168082097624639e-02  4.5069405186769940e-02  -