<?xml version="1.0"?>
<VTKFile type="UnstructuredGrid"  version="0.1"  >
<UnstructuredGrid>
<Piece  NumberOfPoints="2446" NumberOfCells="4585">
<Points>
<DataArray  type="Float64"  NumberOfComponents="3"  format="ascii">0 0.41 0  0 0 0  2.2 0 0  2.2 0.41 0  0.2404508497187474 0.2293892626146237 0  0.25 0.2 0  0.2404508497187474 0.1706107373853764 0  0.2154508497187474 0.1524471741852423 0  0.1845491502812526 0.1524471741852423 0  0.1595491502812526 0.1706107373853764 0  0.15 0.2 0  0.1595491502812526 0.2293892626146237 0  0.1845491502812527 0.2475528258147577 0  0.2154508497187474 0.2475528258147577 0  1.1 0 0  1.1 0.41 0  0 0.205 0  0.55 0 0  0.55 0.41 0  0.275 0 0  0.275 0.41 0  1.65 0.41 0  1.65 0 0  0.8250000000000001 0.41 0  0.8250000000000001 0 0  1.375 0 0  1.375 0.41 0  1.925 0 0  1.925 0.41 0  1.5125 0.205 0  1.7875 0.205 0  0.6875 0.205 0  0.9625000000000001 0.205 0  1.2375 0.205 0  2.2 0.205 0  0.4687002074688797 0.2068568464730291 0  1.99375 0.2152743902439024 0  2.0625 0 0  2.0625 0.41 0  2.2 0.3075 0  0.4125 0 0  0.4125 0.41 0  1.7875 0.41 0  1.375 0.1486128048780488 0  1.5125 0 0  1.7875 0 0  1.5125 0.41 0  0.8250000000000001 0.2613871951219511 0  0.9625000000000001 0.41 0  0.9625000000000001 0 0  0.6875 0.41 0  0.6875 0 0  0.1375 0 0  0.1375 0.41 0  1.2375 0 0  1.1 0.1486128048780487 0  1.2375 0.41 0  1.65 0.1486128048780487 0  1.126715909090909 0.2793064024390244 0  1.676715909090909 0.2793064024390244 0  0.8517159090909092 0.1306935975609756 0  1.348284090909091 0.2793064024390244 0  0.34375 0.3032389320646208 0  1.894702181800738 0.1282910975492754 0  2.092797818199262 0.1282910975492754 0  1.85625 0.3075 0  0.61875 0.3075 0  0.61875 0.1025 0  0.3648540804333487 0.1240075933101478 0  0 0.3075 0  0 0.1025 0  2.099172119769978 0.25625 0  0.48125 0.09238439620688085 0  0.5781001037344399 0.2059284232365146 0  0.48125 0.3196743479159776 0  0.7265881057911006 0.3055240343720796 0  1.99375 0.08395950269330846 0  1.459960956013612 0.3075 0  1.569025960719943 0.2986889805672169 0  0.75625 0.08213100772579164 0  1.03125 0.3278689922742084 0  0.923871252904788 0.3078247185783941 0  1.959375 0.3126371951219512 0  1.749222215368287 0.1025 0  1.275777784631713 0.1025 0  2.2 0.1025 0  1.225938124459196 0.3075 0  1.550777784631713 0.1025 0  1.000777784631713 0.1025 0  1.44375 0.07430640243902442 0  1.16875 0.07430640243902437 0  1.899250267340833 0.2229966846119207 0  0.1020898364287272 0.3140258291809757 0  1.766482954545455 0.2934032012195123 0  0.3405058858996321 0.2119987970531874 0  0.7710785630958338 0.1710968191298857 0  1.046078563095834 0.2389031808701144 0  0.2 0.3400647632937836 0  1.421109702350723 0.2261157654379721 0  0.2800464974185557 0.08982544815605742 0  0.098916018031319 0.09171660955420841 0  2.13125 0 0  2.118919042110979 0.3422084711244843 0  1.30625 0.41 0  0.89375 0 0  1.597888256393107 0.2173787389261347 0  0.20625 0 0  1.829299675393195 0.07400700849299596 0  1.71875 0.41 0  1.16875 0.41 0  2.038220665644273 0.332420740103091 0  0.34375 0 0  0.417496017710808 0.2696595573092803 0  0.2 0.07687845740457822 0  0.9295982307099278 0.1343158415898188 0  0.07390688010811153 0.1697064032433452 0  0.5238366813727013 0.2578302467013575 0  0.05452951551825875 0.25625 0  0.5229630068078351 0.1548816096928243 0  1.452769549894695 0.1548122580621249 0  1.369219062229598 0.07430640243902442 0  1.30625 0 0  0.8504409521244898 0.3356935975609756 0  0.8821881244591965 0.205 0  1.720943423819132 0.1714577452753128 0  1.157188124459196 0.205 0  1.094219062229598 0.07430640243902437 0  1.03125 0 0  1.304056576180868 0.1714577452753128 0  1.67579304192913 0.07430640243902437 0  0.2751941921308361 0.3346083473122598 0  1.209670467133757 0.1362100266964769 0  1.025335513626278 0.1700681449722324 0  0.7562500000000001 0.41 0  1.58125 0 0  0.7567170593862014 0.2409196493502535 0  0.6926714215682891 0.1272249611432207 0  0.4139715849905988 0.3397932387114203 0  0.9840787304190477 0.2717749043358119 0  0.06875000000000001 0.41 0  0 0.35875 0  0.9281250000000001 0.06276726142697993 0  0.5507396469029935 0.3219409231578227 0  0.5504468037989405 0.09136885600634273 0  1.58125 0.41 0  1.631724228912893 0.3381867502687533 0  1.825608881788174 0.14499488549201 0  1.85625 0 0  1.44375 0 0  1.44375 0.41 0  1.85625 0.41 0  2.13125 0.41 0  0.7562500000000001 0 0  0.89375 0.41 0  0.4812500000000001 0 0  0.34375 0.41 0  0.4812500000000001 0.41 0  0.20625 0.41 0  0.06875000000000001 0 0  1.16875 0 0  0.61875 0 0  0.61875 0.41 0  1.03125 0.41 0  1.71875 0 0  1.99375 0 0  1.99375 0.41 0  1.340625 0.3489494290853124 0  1.134375 0.3489494290853123 0  1.700180620188976 0.3438659752031281 0  2.135782184673599 0.07126652247502523 0  1.668441847249787 0.2129203728327609 0  1.295782514339747 0.2378437748815763 0  0.8233075729931248 0.06842334294821524 0  1.409375 0.3520314716057996 0  0.403505597322782 0.182067236678212 0  0.378125 0.05794951541303489 0  0.3043468223249023 0.1518321115979534 0  2.129248544730567 0.1906135162504124 0  2.060771381434487 0.1989445750470348 0  2.013252586573865 0.1496169464686054 0  1.942766402200229 0.1734448904596831 0  1.895522487186454 0.06076163953489683 0  2.069553871656643 0.06605731020975725 0  1.274680914880868 0.3520219391081363 0  1.614713220494657 0.09473434380863296 0  0.7899021319497519 0.3149123934144827 0  0.69518737419149 0.0634051089053758 0  0.2971740475496061 0.2592172353407536 0  1.72990325744076 0.2380068107952482 0  1.356580098625191 0.2120393231351682 0  2.034370752044885 0.2668681600792073 0  1.51768709249349 0.3426260931494756 0  1.561883724969884 0.1650446847858835 0  1.197344062229598 0.2523725417393646 0  1.804085235518364 0.3468178408964637 0  1.817887819205233 0.2589243285818559 0  1.905897727272727 0.3485060975609756 0  0.6719798073392919 0.2688965171178177 0  0 0.05125 0  0.653125 0.35875 0  0.6396896119294488 0.1627615407790282 0  0.4274150154087412 0.1242548552168279 0  1.192836486056382 0.3562350748565544 0  0.8279124365364005 0.183856489168822 0  1.097485222388854 0.2083571153401724 0  1.28257088594801 0.2944411014911587 0  1.474860187679412 0.2504218616229368 0  1.406767003493824 0.2829282258560709 0  0.446875 0.04619219810344041 0  0.515625 0.04585361801037557 0  0.592043440706648 0.05125 0  1.845656689180403 0.1998310418452388 0  2.144958525570388 0.2909790873294231 0  0.6171090763650112 0.2492366900333857 0  2.2 0.15375 0  0.5145586920831158 0.3648371739579888 0  1.57794966442982 0.3540357145964566 0  0.721875 0.3633107922168974 0  0.0496154796471391 0.333125 0  0.5843750000000001 0.3662560860076676 0  0.5810878747760798 0.1474002776121195 0  1.508991196088596 0.1421783375065625 0  0.8840670607017558 0.2640994375393898 0  0.09776612425612034 0.2204896805326566 0  1.50436820029908 0.06143401634903343 0  1.223857000523521 0.0823554862453532 0  1.153316824384777 0.1289850171317837 0  2.148922302309752 0.1258841779285271 0  0.309375 0.04312325590431198 0  1.621993280276081 0.2841214267927899 0  1.550118654119087 0.2461998729100966 0  1.327182649291491 0.1216967252533594 0  1.051977450479407 0.1221382572915816 0  1.753125 0.04556020050186112 0  1.271875 0.04556020050186116 0  0.9816084133102366 0.05126138213476004 0  1.039051841454368 0.0572224914831029 0  0.9719230514536006 0.3480477870845102 0  1.94956388244759 0.1180512551534177 0  1.949997712993411 0.04965831614304109 0  1.771961817615021 0.1530278789497521 0  1.909246823951428 0.2812757146784527 0  0.2459536687882397 0.04668633953831142 0  1.948575539857022 0.2445328248721197 0  1.697271520964565 0.1233917627620729 0  0.7964897648514618 0.1211426571931604 0  1.065625 0.3689344961371042 0  1.085849084308977 0.3170853572226867 0  0.4702981435440001 0.260434880697798 0  1.577403511714593 0.05463601888079143 0  0.05622663515370135 0.05493816910862376 0  0.3267207591099919 0.3566194660323104 0  0.9003051618565143 0.3564049499960621 0  1.751571320346033 0.3651102912045228 0  0.1583785085108421 0.2994699345738728 0  0.1455283439499995 0.3542795598723423 0  2.2 0.35875 0  0.2347662494194072 0.298325008655211 0  0.1527284455616188 0.1065771775690181 0  0.1382139529076665 0.05427454456341477 0  0.8749341636311069 0.05110114999892954 0  0.643661668713109 0.05693499781019222 0  1.466879772203159 0.3611261772912453 0  1.990280163552011 0.3564754268533217 0  1.17471064520912 0.2990917256188288 0  0.5202693090594349 0.206382495511728 0  0 0.25625 0  2.2 0.25625 0  2.2 0.05125 0  0 0.15375 0  1.853978576207987 0.35875 0  0.9787513713939683 0.1487523696999336 0  0.240625 0.3722153812029779 0  1.515638456102889 0.2882700110184686 0  0.09048297387599738 0.3637717362208066 0  2.150453692751374 0.2387066338105111 0  1.323782677156475 0.04897634338873398 0  0.8074131292871642 0.3624701995505916 0  1.409375 0.03715320121951221 0  1.406484531114799 0.1087852750766809 0  1.134375 0.03715320121951218 0  1.627401732573545 0.04552157221025036 0  0.1170173172005315 0.1427610859166811 0  2.045405893604797 0.1105340662939892 0  1.255408269734577 0.1577307500159216 0  2.028125 0.03707597992059326 0  0.4743610090857199 0.1421513964721819 0  0.9354010469015898 0.250631300585664 0  0.04420832937638274 0.128125 0  0.8922386349349938 0.0992956419364831 0  0.1197849154434487 0.2663398672460083 0  1.248258025468107 0.2565907092181813 0  0.3746885856929528 0.370723531618974 0  1.203125 0.0366132337404304 0  0.5724622277005015 0.2751253816079333 0  0.3365425205162783 0.08395777655057959 0  2.072662025974815 0.2975086504196739 0  0.4581080832182547 0.3648371739579888 0  0.3874522734668214 0.2295447548840689 0  0.7827853612484443 0.04106550386289586 0  1.887722846421017 0.1760882698830035 0  1.472640588990488 0.1118278026240017 0  1.865937103925594 0.2604137786483804 0  1.463913572748262 0.2030442564990043 0  1.376426316059077 0.3186741374914345 0  0.6641993820150034 0.3141688596240831 0  0.2943117490824315 0.2130987422685822 0  0.3478153998082709 0.1666571081082676 0  0.3427990510599805 0.2575950027870776 0  0.7997118993855807 0.2216171933356366 0  
[...]
<PointData  Scalars="f_37"> 
<DataArray  type="Float64"  Name="f_37"  format="ascii">4.6051143486055240e-01  5.2293267560757628e-01  -6.0183097932525265e-10  -9.7027739994608817e-10  -4.2645937039659504e-01  -3.3384699669162093e-01  -4.4857117894381493e-01  -7.0144308655957988e-01  -6.5898442522109346e-01  4.4724598891113315e-01  2.0349196050592662e+00  3.8132631645385201e-01  -1.1765681096133447e+00  -6.7545083368870662e-01  2.0108500788952591e-01  2.0006632307775715e-01  8.1418562910346859e-01  2.5109574684668584e-01  2.4564690110420495e-01  8.7295254984613976e-02  8.8713258623107319e-02  1.0034657713325185e-01  1.0052938857343968e-01  2.4969814788335176e-01  2.5082859004427666e-01  1.5018864641048579e-01  1.5002507694780615e-01  4.9487828155619008e-02  4.9925207058743232e-02  1.2530249255027631e-01  7.5102766077289176e-02  2.7839209800430120e-01  2.2556787522002711e-01  1.7544560573521994e-01  -5.2317972892899103e-10  4.6647556990088002e-01  3.7507833857836313e-02  2.4266515866564774e-02  2.6126400121704516e-02  -4.8112404160526836e-10  6.2114663677321477e-02  8.3700083775343298e-02  7.5643758475573475e-02  1.5040476638937667e-01  1.2550758282111329e-01  7.5636349494251021e-02  1.2624986339227529e-01  2.5038428653644362e-01  2.2589178549371591e-01  2.2575324393942900e-01  2.6977678696884022e-01  2.7283230092915545e-01  4.3711830868964080e-01  3.8206590807117269e-01  1.7545725288693514e-01  2.0048628508584429e-01  1.7541114242556899e-01  1.0022642041089165e-01  1.9551995886661341e-01  9.5380034608863004e-02  2.4592991101022876e-01  1.5522330426871878e-01  -1.8348535403998642e-01  5.5518127322910997e-02  1.9478520767602977e-02  6.2516981275381814e-02  2.8194598814480981e-01  2.8494198653955283e-01  -3.4467424430392790e-01  5.5845883212497782e-01  6.1941762938629008e-01  1.8324182549293314e-02  2.4611716619040022e-01  3.2051169383574235e-01  2.3468381127938873e-01  2.6700475619576580e-01  3.7598188157973049e-02  1.3481987139036727e-01  1.1499912512316454e-01  2.6318894677357235e-01  2.1287755769372191e-01  2.3240799471177911e-01  4.3863947776039240e-02  8.2102053406548414e-02  1.6850656718463733e-01  -9.6873000388160812e-10  1.7752252443188388e-01  1.1835714941880066e-01  2.1865721901503188e-01  1.3774908873114730e-01  1.8802047234501806e-01  5.4734189843874639e-02  4.9803490376858922e-01  7.8924948509871681e-02  -6.0757060991031353e-01  2.6096141387808325e-01  2.1034534178471540e-01  1.6233493290460482e-01  1.4196440424189949e-01  -1.5015934480243656e-01  5.6602019829804229e-01  1.2124463922310152e-02  1.4610548240964798e-02  1.6299897130702820e-01  2.3833799796860330e-01  1.0974299069665255e-01  2.7099908027600195e-01  6.7461032943951629e-02  8.7273316006020632e-02  1.8763116743407129e-01  2.9465344113966875e-02  2.0560524283666354e-02  1.8152990724846280e-01  1.6295580854383435e-01  2.3167266808103792e-01  9.5279229677420363e-01  3.3569648936912627e-01  7.6163716187783881e-01  3.4702719191667258e-01  1.3618231518437057e-01  1.5151605724331341e-01  1.6321530084992583e-01  2.4535226933399967e-01  2.4022488925685237e-01  8.7248644028711395e-02  1.9003467281175862e-01  2.0162247824523699e-01  2.1245793176117003e-01  1.6330966500054162e-01  9.5437637568097172e-02  -3.1888444094416171e-02  1.8050169550330455e-01  2.1413023780095605e-01  2.6184868484493451e-01  1.1328839258859927e-01  2.6320445774005419e-01  2.7533326281973053e-01  9.3853591285475213e-02  2.2157920454653016e-01  4.4821113564949483e-01  4.7286896827120206e-01  2.3205314184955375e-01  2.7368176732832566e-01  2.8013042947761851e-01  1.1262706616768976e-01  1.0367608019676659e-01  6.8104369807145751e-02  6.2049836662398737e-02  1.3751077641203674e-01  1.3738873210191430e-01  6.1929026022086969e-02  1.2410528618460112e-02  2.6333835135742523e-01  2.3733461581935203e-01  1.6706325566053809e-01  4.0151170999626264e-02  1.7242768041198164e-01  2.3316052438068358e-01  5.1034005445437702e-01  1.8750661965403281e-01  2.7629246385725520e-01  2.7144127364973009e-01  2.1286034698830808e-01  8.7917653270403504e-02  3.7686445860220595e-02  3.6757814933830582e-02  1.5652517858456366e-01  1.9410062127728028e-01  9.0999615863658553e-02  1.1656184231967260e-02  9.6840313253028110e-02  1.6481134834337116e-01  2.5116144038784832e-01  1.4393428446341627e-01  2.3189357859477483e-01  7.8156360193077298e-03  -7.3300516057727905e-01  1.2872406246105769e-02  2.5303606240748674e-02  3.3950734355164956e-02  4.6796351544796812e-02  5.5258733838638580e-02  2.3593852675021006e-02  1.6872207108781556e-01  1.0670621598092718e-01  2.5609040942087707e-01  2.7277011843226745e-01  -5.6592072448806774e-01  8.5646459983351408e-02  1.5373189041631943e-01  3.0127702801279382e-02  1.2435626906025626e-01  1.1632338529654468e-01  1.8273120640600538e-01  7.2137074660476946e-02  6.9551185152541231e-02  5.3520578525824702e-02  2.7888856034700676e-01  5.3534435471061781e-01  2.7351502155118923e-01  2.8993053768454358e-01  2.2809051079441373e-01  1.8371254398509740e-01  2.5027144391226919e-01  2.0086123946303794e-01  1.6723254767114390e-01  1.3215742692323551e-01  1.4455479679307273e-01  1.2612137645084703e-01  2.2618115291775306e-01  2.7474047358068160e-01  6.4510440182455914e-02  9.9969244003196202e-03  2.9509569403737046e-01  -5.2317972892899103e-10  2.2141131950964177e-01  1.1341343832865469e-01  2.6629436204217194e-01  4.9634224934536136e-01  2.6670291292332837e-01  3.0676248930627681e-01  1.2592791639851056e-01  2.3966040639595038e-01  1.1604002883852791e+00  1.2687326904119001e-01  1.7792253398276944e-01  1.9074490184721893e-01  9.2977308872878757e-03  4.6717778793982810e-03  1.0532818687655508e-01  1.1845527009162356e-01  1.5914157297361833e-01  2.0927092675997075e-01  8.1499673087271921e-02  1.6921715347425642e-01  2.2242011915274454e-01  2.1158502449867922e-01  2.2360818761410750e-01  4.5552335186383089e-02  4.5435906734976911e-02  7.7950381844937147e-02  5.2968203431738220e-02  1.1258630047569809e-01  4.5799106874782877e-02  9.1620608611396259e-02  2.5611142606929777e-01  2.0677454203752346e-01  2.0303035316728210e-01  3.5865659424891172e-01  1.1350463414496531e-01  5.2893375354240046e-01  2.5746945504688443e-03  2.3662935946632341e-01  8.1705052936269923e-02  2.5897287560182514e-01  3.5772488219616966e-01  -9.7027739994608817e-10  -1.6732109139312842e-01  3.5845412129454690e-01  4.3199732638639016e-01  2.4174809632002708e-01  2.7770210348618646e-01  1.3348786253146322e-01  3.8346258592506066e-02  1.8685012606887311e-01  3.7468527355075920e-01  7.1338184199139676e-01  -7.0424295562203038e-10  -1.1111600410517170e-09  7.5516201509670899e-01  6.2825894064929597e-02  2.2266492843899480e-01  1.3142523930355349e-01  1.2471842947796723e-01  4.3924916175976808e-01  9.0203223597456056e-03  1.5985869542409664e-01  2.5281076048627971e-01  1.4403776844585953e-01  1.4468676818008738e-01  1.9444985940395518e-01  1.0430411119918907e-01  8.2974523772789088e-01  2.8052002178088408e-02  1.7219558003212146e-01  3.1286259628242635e-02  3.6395096519165315e-01  2.3040526619504251e-01  7.0298805291106214e-01  2.3852941054857377e-01  6.9600825043667869e-01  1.7347337201002394e-01  4.2296931259934237e-02  1.8155704377439272e-01  3.0077540312483214e-01  -1.6526068126366630e-01  2.3151653752648035e-02  1.5326528835760850e-01  -1.0699100707391954e-01  2.5830284365457534e-01  5.6817684878167712e-02  1.3254866321564043e-01  6.0805880229109051e-02  1.3415161186998900e-01  1.4999555009751497e-01  2.7599468701308572e-01  -5.6746668066318118e-01  -7.5921265028107643e-01  -6.2994488756560407e-01  2.5530680401180617e-01  8.7028422502025388e-02  7.7562058096545913e-02  1.7266948579226116e-02  2.7080974156892601e-01  2.6669207981336196e-01  2.1849236170857997e-01  2.1337345856841558e-01  2.0229303037413943e-01  1.4667385979965822e-01  -4.1249567819193628e-01  3.1544243615200793e-02  1.0878160324257735e-01  2.9101009761495233e-01  2.7220304998225675e-01  7.0641422747380028e-02  8.8773765570573560e-01  3.8143772989702708e-02  6.7378861636837326e-03  1.9159354337869468e-02  2.2735252792178102e-02  4.9134864078574919e-01  2.6653690501727528e-01  1.0631599804709724e-01  7.3980507140761334e-02  3.5289409331302278e-02  3.6467127322389853e-01  1.4893376243183690e-01  1.8273014244772492e-01  1.3091377660686859e-01  1.0365433955415251e-01  1.1879998591385738e-01  2.4422719926803133e-01  9.3325701984221604e-02  8.9711837520883464e-02  2.1883637432477515e-01  2.1644274654046652e-01  6.9647490068804468e-03  7.0703503505135995e-03  4.5797093531130156e-01  2.7813506680138300e-01  2.6001118469677154e-01  2.3292403295235439e-01  2.4013282202237188e-01  1.0298345329124733e-01  7.3476283616123086e-02  6.0453180469617500e-02  1.1868515743170339e-01  4.6507171613329949e-02  4.3804376052029731e-01  -2.8892226062371268e-01  6.8442580538713521e-02  2.0502847398965124e-01  8.4474158982025413e-02  9.7999391257752727e-02  2.2586277304463656e-01  1.0230462663589968e-01  3.1475461227122009e-01  2.6037415519615668e-02  2.3114295704615906e-01  1.1785561090801942e-01  1.7599496681041227e-01  1.9231697692118500e-02  1.3315112974572776e-01  3.0147195525791498e-01  2.0633174360157913e-01  4.6052818877671892e-01  1.1123636035573299e-01  2.5762676396600187e-01  5.2792162924869693e-03  1.9590355055622780e-01  2.6613220819081596e-01  1.9477435418580669e-01  2.4492819332174276e-01  1.9515741668706202e-01  1.9365407460187470e-01  1.3216275672628957e+00  7.1518616864852790e-03  1.6024967025288431e-01  3.8539107607934858e-02  2.4509730936424748e-01  5.5842144468598816e-02  6.2168901348218029e-02  5.6145303829003922e-02  4.9378097409984438e-02  1.2563013333057274e-01  8.8769648427541883e-02  9.7223957225830479e-02  9.9642313270522337e-02  5.1989129425257985e-01  2.3912753639773437e-01  -2.5869564452855770e-01  4.6087229426509724e-01  2.9530638000132840e-02  1.4322333862467010e-01  2.7937216257621195e-01  2.1989474549747268e-01  5.9331022780446574e-01  2.5755815944128846e-01  2.4750828289921242e-02  7.6785456194466709e-02  2.7044747140996589e-01  2.2973238654911682e-01  2.7094356790696572e-01  1.2949299031970984e-01  8.1815072049735627e-01  1.8927903435775231e-01  2.4554527873545615e-01  3.0499558116791080e-02  1.3778441131953070e-01  6.1983985160580804e-02  2.8621001899402237e-01  1.2528003114389399e-01  4.8511277412858121e-02  3.0372478108363804e-01  4.1000146988868064e-01  3.0916806161116883e-01  3.3164411703717178e-01  -5.7704838720135698e-01  3.0413609339449083e-01  3.3614301883727904e-01  2.4294845802841480e-01  6.3601429877985527e-01  1.2222898599708359e-01  8.2447128209312034e-02  1.6811598946334458e-01  8.5157325618551563e-02  1.6545775153056980e-01  1.5152623546138752e-01  1.5323404216242006e-01  2.0255599273911679e-01  9.3680780451164264e-02  1.5701158095506482e-01  4.1118840312911915e-02  7.6773750357108494e-01  -1.5267705213168614e-02  1.8356985395760186e-01  1.7422973209656625e-01  5.9607065722821351e-01  5.1503091552755453e-02  1.0895470662324806e-01  9.7070855165523093e-02  -2.1990783805853695e-01  -1.1156714021169373e-01  -3.9273753256350924e-01  5.6471171467949810e-01  3.9310890627491729e-01  1.0444230017671921e-01  1.1016151325430348e-01  1.2203154100924417e-01  2.8274996851343193e-01  6.9118020562924098e-02  2.6312124385099001e-01  2.4884338545658757e-02  3.1434790364641016e-02  1.6206516295136170e-01  -5.2352936433501096e-01  1.6594941985555871e-02  1.5113116023479268e-02  6.6997432879676820e-03  7.7949579250868359e-02  1.1967247674993410e-01  2.1331253488853666e-01  2.1649770713666580e-01  2.2039543798726391e-01  2.7512230652761127e-01  1.4432878679268898e-01  2.0072353129945750e-01  2.2821589162554617e-01  2.3595810512308651e-01  2.4501168633663559e-01  2.4795003488754774e-01  6.4086451807960848e-03  1.4468244970440147e-02  2.1638814176523063e-01  4.4245984626056840e-02  1.6587666893599282e-02  2.6413048614136947e-01  1.8161874966964539e-01  2.3171118542974262e-01  6.2153181282453514e-02  7.2400438551158505e-02  3.1062543867125175e-01  -1.2919646707327960e-02  9.9691235489156843e-02  2.3208068406866111e-01  -7.3025221019498965e-01  2.2605288718981020e-01  2.5472317076765294e-01  1.8940708055387903e-01  1.9374288870458864e-01  1.6270433470540982e-01  1.5646343800637622e-01  1.5018295185422678e-01  1.9292551159872076e-01  1.4001451008386306e-01  1.4250150552304389e-02  1.8247140057130265e-01  2.5542105977775348e-01  2.5334900000314109e-01  -2.1232538339325646e-01  -1.9509652329245463e-02  6.1528467865859048e-02  3.3765718571833359e-02  2.5260600576792142e-01  2.9700138070676735e-01  2.7641357387655607e-01  2.7515767516390871e-01  6.2953989370124572e-02  1.7526842524706679e-01  2.2452047069112524e-01  2.5821746101054377e-01  3.0908252230240829e-01  2.9141641733423229e-01  1.4368482450834555e-01  9.4612972428581008e-02  3.7604240540031635e-02  3.1081902787482275e-02  4.3659635217638014e-02  1.6887089872708541e-01  1.9685149619962458e-01  1.8768719695129873e-01  1.7158150443544959e-01  1.5691047739941075e-01  2.0751960109274009e-01  5.6770415305875893e-03  1.9338150766332017e-02  1.9427063125303462e-01  1.4410392648071749e-01  1.3175299335223478e-01  8.1712038734740880e-02  2.0692654850636796e-01  8.1011829181593220e-02  2.6609217302653915e-01  1.4464888186363017e-01  2.6933692166089734e-01  5.3030167137079823e-03  2.3226680992295995e-01  5.0499473840388873e-02  1.1258931276794698e-01  1.2713624671898069e-01  4.8586508440416776e-01  1.5442126070875217e-01  1.6850569007309851e-01  4.2425232171029453e-01  2.7754052495212306e-01  2.5651854017824371e-01  4.0887511765830539e-02  2.6630442687603467e-01  2.1653547435525480e-01  2.6903498322819308e-01  2.1656463431608439e-01  2.7312395413366064e-01  2.1890153850263086e-01  1.8174441314283082e-01  1.0590835307048581e-01  4.4869764313631058e-02  1.6912924489692160e-01  3.1087677039340646e-02  4.4387856134901649e-02  8.7880922943492243e-02  3.4449643310877701e-02  2.5721745744820534e-01  1.3870833128935339e-01  1.8754909462625277e-01  -3.6575126559570230e-02  1.5781706376973051e-01  1.6184376708825160e-01  1.8799387456223465e-01  1.2062893202777041e-01  1.2863397217920960e-01  5.2867290103703724e-02  2.9378946149839108e-01  1.3815925158346673e-01  1.4080287355864349e-01  9.0858120597256814e-02  5.6021819053272935e-02  8.9846120807210259e-02  -3.9054799556649145e-02  2.8256102544884809e-01  6.7515210613046842e-02  9.6894481737869520e-02  1.6156622045796318e-01  4.9958296873351980e-02  1.2867497236585904e-01  2.5007542127411775e-01  2.0643577267897503e-01  2.2188722369638106e-01  7.7969876265642213e-01  -2.1648577651967435e-01  1.0949231253344781e-01  2.7298017818498566e-01  2.4999273293624100e-02  2.0385731079487632e-02  2.1254499835609200e-01  2.7089979684886667e-01  1.5244941306612730e-01  8.3651292437016855e-01  1.7396941307475597e-01  5.0153755792717560e-02  5.2008666345899353e-02  4.0224922944079478e-01  2.0691387943308461e-02  3.2183294059472750e-01  2.8182546206050385e-01  2.7183274899032817e-01  2.3596983377123748e-01  2.9167673256186129e-02  7.1867336602747287e-02  2.0725811791906737e-01  6.6596359452193624e-02  9.1551845584901370e-02  6.5050780472416470e-02  4.3485759556637804e-02  5.7606572515455801e-03  2.0518459243856976e-01  2.2699825550645492e-01  1.1485320237222119e-01  2.5047235766899018e-01  2.2946778559323325e-01  1.1271744571366407e-01  1.0151162896807950e-01  4.7654771000915830e-01  5.3125171110992131e-02  -6.9878357464717111e-01  1.1595227273376678e-01  -4.7833981071817810e-01  -5.2202966766952830e-01  3.9067282560268496e-01  2.9290560381449510e-01  1.1003738111564500e-01  1.9664674883759775e-01  1.2153743590005887e-01  5.9385600142509327e-03  1.5636918160069935e-01  2.2608286502030989e-01  2.7127845145004686e-01  3.0263715264484203e-01  5.9121755491903356e-02  2.7186941301638079e-01  4.7377705168482637e-02  1.7708940436925244e-01  2.3761611442329447e-01  1.1610691522842527e-01  7.0803846739322690e-02  2.0727778613563796e-01  1.8270863685540489e-01  1.1367175014077873e+00  8.2469769769734150e-02  2.7710059827930777e-01  1.7145923850576253e-01  1.7840460223481772e-01  1.8742413481499931e-01  9.7894077742289531e-02  1.3218383205096090e-01  7.4010518367668671e-02  6.6197413336575639e-02  1.9386478808643595e-02  1.2813431722448840e-01  4.1499643491510169e-02  5.2337147675608708e-01  5.2161542100057934e-01  1.2023897477769557e-01  5.4683944166230090e-02  1.6552458414843285e-01  6.3604545129544732e-01  1.7608108476233783e-01  1.1875148702290125e-01  2.1095332774204648e-01  2.0765560249590512e-01  2.7954487656339067e-01  3.9966770494181181e-02  3.8596697898942045e-01  1.5609550104177611e-01  -7.0543801111208115e-02  1.7202803683059803e-01  6.5717331789151817e-02  2.3481361592355962e-01  7.9291802015360024e-01  -4.6538626217187951e-01  2.1832545439156296e-02  1.8048752195797973e-02  2.6152781194505476e-01  6.7598992212949474e-02  1.7786267489718555e-01  1.0397507065492687e-01  5.8470713706099783e-02  -7.0424295562203038e-10  2.0094860281248730e-01  2.7890918284261412e-01  2.0086912063822379e-01  1.9556742556579135e-01  2.4597805020476818e-01  1.0054084757806943e-01  2.8484115046139097e-01  6.2700534774478220e-03  2.1512819492980897e-01  2.4686871750634116e-02  2.1734322186994132e-01  4.2236867757021973e-01  4.0419211808357836e-01  5.5366401919369972e-02  2.3707424829585125e-01  1.4720161280753657e-01  1.3644948290110867e-01  1.3254216607318225e-01  1.2867932131328011e-01  1.3847007632007211e-01  5.9874473665390136e-02  2.5367861236433636e-01  2.6834611794438884e-01  2.1844372308960988e-01  2.6000940392799005e-01  2.4591471484165844e-01  1.4982198119369003e-01  1.4229892536953512e-01  2.5833124471008923e-01  1.9979964359450306e-01  5.9022689406145128e-02  2.3035294632006803e-01  2.8593566422633288e-01  2.9140439090993475e-01  2.6759176038728405e-01  -1.7712113092521468e-09  2.2801384960939733e-01  1.7290780032363720e-01  1.6799011106074566e-01  2.4782255037251641e-01  1.6793747011074880e-01  2.6376726057703381e-01  8.5692494715645856e-02  2.4514278005623663e-01  1.9771351706337492e-01  2.7966538615687409e-01  -3.2226325385206062e-01  3.4987444136227293e-02  2.1107860709541462e-01  2.5024642371894101e-01  2.5830155076692346e-01  1.3111274275455245e-01  1.0218049161071037e-01  1.8513048406317589e-01  2.6127040058581730e-01  2.6203255052633989e-01  2.1501574066032272e-01  -3.4380810626888958e-01  7.8471814278184907e-02  1.1494510683812666e-02  1.2685280364367531e-02  5.2553782625308354e-03  2.3320197255620176e-01  5.9673694433171762e-02  3.8712992907567849e-02  2.0959182393374345e-01  1.6446630987721469e-01  8.4737614108066739e-02  7.7732610540053454e-02  1.1073706016285309e-01  2.7209403979467084e-01  1.8558345178392588e-01  1.8877803059972781e-01  -1.0301438964903518e-01  1.5719782903313884e-01  1.7917503120298606e-01  2.0834317557438678e-01  2.0639627982800474e-01  2.5278605042859176e-01  1.8237096345183818e-01  2.0072707000762660e-01  1.6661735227955998e-01  5.2056375134997945e-01  1.7999148069942333e-01  5.1030259222019447e-01  3.5200525694409524e-01  9.0051398510109265e-02  1.9572598272216929e-01  3.4608583609215392e-02  2.6550069303512874e-01  -5.2317972892899103e-10  1.1163953649305132e+00  9.1775006263216130e-01  1.1373545434487894e-01  1.0806962957055888e-01  -1.2127477198317410e-01  5.0911500222944363e-02  5.5875397974604690e-01  2.0071432829764169e-01  5.0383324038673705e-01  5.0743817331729679e-01  5.8773463698999606e-01  4.7516035940020940e-01  4.7138398574658145e-02  2.0064581185058942e-02  2.8567503843562625e-01  1.2232005398496416e-01  1.1586595845948018e-01  1.1391148396413299e-01  1.5534894111011058e-01  1.8275947758174804e-01  1.0608229657857786e-01  6.9858111901329720e-02  2.5474356392796815e-01  7.6626283769748893e-02  5.0371668178713747e-02  4.8198017837567650e-02  3.5823998765207539e-02  3.2337359515989522e-01  8.6170264948844860e-02  2.5566225063164244e-01  8.0276124986446123e-02  1.8475004143411558e-01  1.4016955692297822e-01  2.3492294437110317e-01  2.3748722276312187e-01  5.8713060770859755e-02  2.2445033525982913e-02  1.7088934280976306e-01  3.4328495056626840e-01  2.70755628