<?xml version="1.0"?>
<VTKFile type="UnstructuredGrid"  version="0.1"  >
<UnstructuredGrid>
<Piece  NumberOfPoints="2446" NumberOfCells="4585">
<Points>
<DataArray  type="Float64"  NumberOfComponents="3"  format="ascii">0 0.41 0  0 0 0  2.2 0 0  2.2 0.41 0  0.2404508497187474 0.2293892626146237 0  0.25 0.2 0  0.2404508497187474 0.1706107373853764 0  0.2154508497187474 0.1524471741852423 0  0.1845491502812526 0.1524471741852423 0  0.1595491502812526 0.1706107373853764 0  0.15 0.2 0  0.1595491502812526 0.2293892626146237 0  0.1845491502812527 0.2475528258147577 0  0.2154508497187474 0.2475528258147577 0  1.1 0 0  1.1 0.41 0  0 0.205 0  0.55 0 0  0.55 0.41 0  0.275 0 0  0.275 0.41 0  1.65 0.41 0  1.65 0 0  0.8250000000000001 0.41 0  0.8250000000000001 0 0  1.375 0 0  1.375 0.41 0  1.925 0 0  1.925 0.41 0  1.5125 0.205 0  1.7875 0.205 0  0.6875 0.205 0  0.9625000000000001 0.205 0  1.2375 0.205 0  2.2 0.205 0  0.4687002074688797 0.2068568464730291 0  1.99375 0.2152743902439024 0  2.0625 0 0  2.0625 0.41 0  2.2 0.3075 0  0.4125 0 0  0.4125 0.41 0  1.7875 0.41 0  1.375 0.1486128048780488 0  1.5125 0 0  1.7875 0 0  1.5125 0.41 0  0.8250000000000001 0.2613871951219511 0  0.9625000000000001 0.41 0  0.9625000000000001 0 0  0.6875 0.41 0  0.6875 0 0  0.1375 0 0  0.1375 0.41 0  1.2375 0 0  1.1 0.1486128048780487 0  1.2375 0.41 0  1.65 0.1486128048780487 0  1.126715909090909 0.2793064024390244 0  1.676715909090909 0.2793064024390244 0  0.8517159090909092 0.1306935975609756 0  1.348284090909091 0.2793064024390244 0  0.34375 0.3032389320646208 0  1.894702181800738 0.1282910975492754 0  2.092797818199262 0.1282910975492754 0  1.85625 0.3075 0  0.61875 0.3075 0  0.61875 0.1025 0  0.3648540804333487 0.1240075933101478 0  0 0.3075 0  0 0.1025 0  2.099172119769978 0.25625 0  0.48125 0.09238439620688085 0  0.5781001037344399 0.2059284232365146 0  0.48125 0.3196743479159776 0  0.7265881057911006 0.3055240343720796 0  1.99375 0.08395950269330846 0  1.459960956013612 0.3075 0  1.569025960719943 0.2986889805672169 0  0.75625 0.08213100772579164 0  1.03125 0.3278689922742084 0  0.923871252904788 0.3078247185783941 0  1.959375 0.3126371951219512 0  1.749222215368287 0.1025 0  1.275777784631713 0.1025 0  2.2 0.1025 0  1.225938124459196 0.3075 0  1.550777784631713 0.1025 0  1.000777784631713 0.1025 0  1.44375 0.07430640243902442 0  1.16875 0.07430640243902437 0  1.899250267340833 0.2229966846119207 0  0.1020898364287272 0.3140258291809757 0  1.766482954545455 0.2934032012195123 0  0.3405058858996321 0.2119987970531874 0  0.7710785630958338 0.1710968191298857 0  1.046078563095834 0.2389031808701144 0  0.2 0.3400647632937836 0  1.421109702350723 0.2261157654379721 0  0.2800464974185557 0.08982544815605742 0  0.098916018031319 0.09171660955420841 0  2.13125 0 0  2.118919042110979 0.3422084711244843 0  1.30625 0.41 0  0.89375 0 0  1.597888256393107 0.2173787389261347 0  0.20625 0 0  1.829299675393195 0.07400700849299596 0  1.71875 0.41 0  1.16875 0.41 0  2.038220665644273 0.332420740103091 0  0.34375 0 0  0.417496017710808 0.2696595573092803 0  0.2 0.07687845740457822 0  0.9295982307099278 0.1343158415898188 0  0.07390688010811153 0.1697064032433452 0  0.5238366813727013 0.2578302467013575 0  0.05452951551825875 0.25625 0  0.5229630068078351 0.1548816096928243 0  1.452769549894695 0.1548122580621249 0  1.369219062229598 0.07430640243902442 0  1.30625 0 0  0.8504409521244898 0.3356935975609756 0  0.8821881244591965 0.205 0  1.720943423819132 0.1714577452753128 0  1.157188124459196 0.205 0  1.094219062229598 0.07430640243902437 0  1.03125 0 0  1.304056576180868 0.1714577452753128 0  1.67579304192913 0.07430640243902437 0  0.2751941921308361 0.3346083473122598 0  1.209670467133757 0.1362100266964769 0  1.025335513626278 0.1700681449722324 0  0.7562500000000001 0.41 0  1.58125 0 0  0.7567170593862014 0.2409196493502535 0  0.6926714215682891 0.1272249611432207 0  0.4139715849905988 0.3397932387114203 0  0.9840787304190477 0.2717749043358119 0  0.06875000000000001 0.41 0  0 0.35875 0  0.9281250000000001 0.06276726142697993 0  0.5507396469029935 0.3219409231578227 0  0.5504468037989405 0.09136885600634273 0  1.58125 0.41 0  1.631724228912893 0.3381867502687533 0  1.825608881788174 0.14499488549201 0  1.85625 0 0  1.44375 0 0  1.44375 0.41 0  1.85625 0.41 0  2.13125 0.41 0  0.7562500000000001 0 0  0.89375 0.41 0  0.4812500000000001 0 0  0.34375 0.41 0  0.4812500000000001 0.41 0  0.20625 0.41 0  0.06875000000000001 0 0  1.16875 0 0  0.61875 0 0  0.61875 0.41 0  1.03125 0.41 0  1.71875 0 0  1.99375 0 0  1.99375 0.41 0  1.340625 0.3489494290853124 0  1.134375 0.3489494290853123 0  1.700180620188976 0.3438659752031281 0  2.135782184673599 0.07126652247502523 0  1.668441847249787 0.2129203728327609 0  1.295782514339747 0.2378437748815763 0  0.8233075729931248 0.06842334294821524 0  1.409375 0.3520314716057996 0  0.403505597322782 0.182067236678212 0  0.378125 0.05794951541303489 0  0.3043468223249023 0.1518321115979534 0  2.129248544730567 0.1906135162504124 0  2.060771381434487 0.1989445750470348 0  2.013252586573865 0.1496169464686054 0  1.942766402200229 0.1734448904596831 0  1.895522487186454 0.06076163953489683 0  2.069553871656643 0.06605731020975725 0  1.274680914880868 0.3520219391081363 0  1.614713220494657 0.09473434380863296 0  0.7899021319497519 0.3149123934144827 0  0.69518737419149 0.0634051089053758 0  0.2971740475496061 0.2592172353407536 0  1.72990325744076 0.2380068107952482 0  1.356580098625191 0.2120393231351682 0  2.034370752044885 0.2668681600792073 0  1.51768709249349 0.3426260931494756 0  1.561883724969884 0.1650446847858835 0  1.197344062229598 0.2523725417393646 0  1.804085235518364 0.3468178408964637 0  1.817887819205233 0.2589243285818559 0  1.905897727272727 0.3485060975609756 0  0.6719798073392919 0.2688965171178177 0  0 0.05125 0  0.653125 0.35875 0  0.6396896119294488 0.1627615407790282 0  0.4274150154087412 0.1242548552168279 0  1.192836486056382 0.3562350748565544 0  0.8279124365364005 0.183856489168822 0  1.097485222388854 0.2083571153401724 0  1.28257088594801 0.2944411014911587 0  1.474860187679412 0.2504218616229368 0  1.406767003493824 0.2829282258560709 0  0.446875 0.04619219810344041 0  0.515625 0.04585361801037557 0  0.592043440706648 0.05125 0  1.845656689180403 0.1998310418452388 0  2.144958525570388 0.2909790873294231 0  0.6171090763650112 0.2492366900333857 0  2.2 0.15375 0  0.5145586920831158 0.3648371739579888 0  1.57794966442982 0.3540357145964566 0  0.721875 0.3633107922168974 0  0.0496154796471391 0.333125 0  0.5843750000000001 0.3662560860076676 0  0.5810878747760798 0.1474002776121195 0  1.508991196088596 0.1421783375065625 0  0.8840670607017558 0.2640994375393898 0  0.09776612425612034 0.2204896805326566 0  1.50436820029908 0.06143401634903343 0  1.223857000523521 0.0823554862453532 0  1.153316824384777 0.1289850171317837 0  2.148922302309752 0.1258841779285271 0  0.309375 0.04312325590431198 0  1.621993280276081 0.2841214267927899 0  1.550118654119087 0.2461998729100966 0  1.327182649291491 0.1216967252533594 0  1.051977450479407 0.1221382572915816 0  1.753125 0.04556020050186112 0  1.271875 0.04556020050186116 0  0.9816084133102366 0.05126138213476004 0  1.039051841454368 0.0572224914831029 0  0.9719230514536006 0.3480477870845102 0  1.94956388244759 0.1180512551534177 0  1.949997712993411 0.04965831614304109 0  1.771961817615021 0.1530278789497521 0  1.909246823951428 0.2812757146784527 0  0.2459536687882397 0.04668633953831142 0  1.948575539857022 0.2445328248721197 0  1.697271520964565 0.1233917627620729 0  0.7964897648514618 0.1211426571931604 0  1.065625 0.3689344961371042 0  1.085849084308977 0.3170853572226867 0  0.4702981435440001 0.260434880697798 0  1.577403511714593 0.05463601888079143 0  0.05622663515370135 0.05493816910862376 0  0.3267207591099919 0.3566194660323104 0  0.9003051618565143 0.3564049499960621 0  1.751571320346033 0.3651102912045228 0  0.1583785085108421 0.2994699345738728 0  0.1455283439499995 0.3542795598723423 0  2.2 0.35875 0  0.2347662494194072 0.298325008655211 0  0.1527284455616188 0.1065771775690181 0  0.1382139529076665 0.05427454456341477 0  0.8749341636311069 0.05110114999892954 0  0.643661668713109 0.05693499781019222 0  1.466879772203159 0.3611261772912453 0  1.990280163552011 0.3564754268533217 0  1.17471064520912 0.2990917256188288 0  0.5202693090594349 0.206382495511728 0  0 0.25625 0  2.2 0.25625 0  2.2 0.05125 0  0 0.15375 0  1.853978576207987 0.35875 0  0.9787513713939683 0.1487523696999336 0  0.240625 0.3722153812029779 0  1.515638456102889 0.2882700110184686 0  0.09048297387599738 0.3637717362208066 0  2.150453692751374 0.2387066338105111 0  1.323782677156475 0.04897634338873398 0  0.8074131292871642 0.3624701995505916 0  1.409375 0.03715320121951221 0  1.406484531114799 0.1087852750766809 0  1.134375 0.03715320121951218 0  1.627401732573545 0.04552157221025036 0  0.1170173172005315 0.1427610859166811 0  2.045405893604797 0.1105340662939892 0  1.255408269734577 0.1577307500159216 0  2.028125 0.03707597992059326 0  0.4743610090857199 0.1421513964721819 0  0.9354010469015898 0.250631300585664 0  0.04420832937638274 0.128125 0  0.8922386349349938 0.0992956419364831 0  0.1197849154434487 0.2663398672460083 0  1.248258025468107 0.2565907092181813 0  0.3746885856929528 0.370723531618974 0  1.203125 0.0366132337404304 0  0.5724622277005015 0.2751253816079333 0  0.3365425205162783 0.08395777655057959 0  2.072662025974815 0.2975086504196739 0  0.4581080832182547 0.3648371739579888 0  0.3874522734668214 0.2295447548840689 0  0.7827853612484443 0.04106550386289586 0  1.887722846421017 0.1760882698830035 0  1.472640588990488 0.1118278026240017 0  1.865937103925594 0.2604137786483804 0  1.463913572748262 0.2030442564990043 0  1.376426316059077 0.3186741374914345 0  0.6641993820150034 0.3141688596240831 0  0.2943117490824315 0.2130987422685822 0  0.3478153998082709 0.1666571081082676 0  0.3427990510599805 0.2575950027870776 0  0.7997118993855807 0.2216171933356366 0  
[...]
<PointData  Vectors="f_31"> 
<DataArray  type="Float64"  Name="f_31"  NumberOfComponents="3" format="ascii">1.7612101884886714e-05 2.4297251808591178e-05 0.0000000000000000e+00  2.6263257212246333e-05 -3.8889773918250957e-05 0.0000000000000000e+00  2.0572192918292065e-06 1.1345661433923137e-06 0.0000000000000000e+00  -2.2434515889086789e-05 3.3008225347623038e-06 0.0000000000000000e+00  1.7503287040368504e-04 -2.9899863054843581e-05 0.0000000000000000e+00  1.2028969148762118e-04 2.2984770392298273e-05 0.0000000000000000e+00  1.3390412323642634e-04 1.6335744040140130e-05 0.0000000000000000e+00  4.5810563182754552e-05 -7.0821830703877815e-05 0.0000000000000000e+00  -3.6115764990505460e-05 -2.6102260866323363e-05 0.0000000000000000e+00  7.9561351057326647e-05 -6.4745964280498743e-05 0.0000000000000000e+00  -3.5658801747216668e-05 1.9570916792993200e-05 0.0000000000000000e+00  6.8170129399894791e-05 7.0797401562611186e-05 0.0000000000000000e+00  2.0756726307478152e-06 2.4324473026590621e-05 0.0000000000000000e+00  3.7544620047631083e-05 4.0704315401578317e-05 0.0000000000000000e+00  -5.4739987165383060e-06 -7.9752898809157485e-07 0.0000000000000000e+00  2.3070311202787885e-07 1.8994643161936355e-06 0.0000000000000000e+00  1.5000080105123721e+00 8.9548564313772666e-07 0.0000000000000000e+00  -1.0165693390710323e-05 2.1881672451121460e-06 0.0000000000000000e+00  8.8345544682381794e-06 1.1502659325437097e-06 0.0000000000000000e+00  9.4102285128499249e-06 3.4969545643417177e-06 0.0000000000000000e+00  -3.8702533803061862e-07 -5.1380376382607084e-07 0.0000000000000000e+00  -2.9135942985351959e-06 -1.1960315659774378e-06 0.0000000000000000e+00  -1.3226668249771313e-06 9.4778166690764900e-07 0.0000000000000000e+00  -7.1261173071279050e-06 -1.1241774255462085e-06 0.0000000000000000e+00  -8.0553853525728664e-06 2.8587862451957468e-06 0.0000000000000000e+00  -1.0398763976526170e-05 3.1942733496719697e-07 0.0000000000000000e+00  -7.7739013572928760e-07 -6.2829008356011742e-06 0.0000000000000000e+00  -2.9338822392655504e-06 -2.3992566514138404e-06 0.0000000000000000e+00  -8.4549506021408274e-06 -2.5038322262730583e-06 0.0000000000000000e+00  1.0460657774312077e+00 5.7171905684948906e-06 0.0000000000000000e+00  1.0460057133551459e+00 -3.5969666033340561e-05 0.0000000000000000e+00  1.0454053274006023e+00 -5.5828575730161763e-04 0.0000000000000000e+00  1.0459349898551549e+00 -8.4812756842601584e-05 0.0000000000000000e+00  1.0459963965573131e+00 4.9812071181689053e-05 0.0000000000000000e+00  1.0472785489006555e+00 2.6706963063263074e-05 0.0000000000000000e+00  1.0282029981826208e+00 -4.1346790655672500e-03 0.0000000000000000e+00  1.0460782285848922e+00 3.9415100777530297e-05 0.0000000000000000e+00  -1.0613148413472838e-06 -4.2418274612765489e-07 0.0000000000000000e+00  -1.0721404419490495e-07 -5.0434424624500086e-07 0.0000000000000000e+00  1.0475821936573839e+00 -1.5030831959470525e-03 0.0000000000000000e+00  3.7836272330622769e-06 -1.8798677630299389e-06 0.0000000000000000e+00  1.0844915798149046e-06 9.5352612256109046e-07 0.0000000000000000e+00  -8.7772314445571915e-06 -3.9191416138729991e-07 0.0000000000000000e+00  1.0459882706993009e+00 6.0321629045790901e-05 0.0000000000000000e+00  -5.8159521271074465e-06 3.4025155916348147e-06 0.0000000000000000e+00  -8.2335204693109099e-06 7.6171631144674300e-07 0.0000000000000000e+00  6.7360026660145153e-07 -1.2475255737413453e-06 0.0000000000000000e+00  1.0460033503881028e+00 -2.0400094126614106e-04 0.0000000000000000e+00  -5.0168089735402717e-06 4.0657762413696088e-07 0.0000000000000000e+00  5.4315243960028812e-07 1.0815338729141841e-07 0.0000000000000000e+00  6.8880245543664670e-06 -1.2040304231403012e-06 0.0000000000000000e+00  -8.3798539736497249e-06 -3.0242662588968196e-06 0.0000000000000000e+00  -2.4881771627059091e-05 3.9788953503226573e-06 0.0000000000000000e+00  -2.5238136736332717e-05 2.2510566782671399e-06 0.0000000000000000e+00  9.0305650386442778e-07 -1.3214327909071988e-07 0.0000000000000000e+00  1.0458480273236661e+00 -4.5732937780093578e-05 0.0000000000000000e+00  -5.4503886522863762e-07 -1.7608808985504867e-07 0.0000000000000000e+00  1.0460873511237418e+00 -1.9999095035556860e-05 0.0000000000000000e+00  1.0458357386561887e+00 -8.4367653783072873e-05 0.0000000000000000e+00  1.0460886637424227e+00 2.4470747672600455e-05 0.0000000000000000e+00  1.0459774413950149e+00 -1.4564640752096346e-04 0.0000000000000000e+00  1.0460358606041957e+00 1.7433195158758261e-04 0.0000000000000000e+00  1.0935369741082250e+00 -1.2077888231544008e-01 0.0000000000000000e+00  1.0459075900002639e+00 2.2545872531839106e-05 0.0000000000000000e+00  1.0461513014707380e+00 4.9564300208552916e-04 0.0000000000000000e+00  1.0459445310794282e+00 -6.1893281903170175e-06 0.0000000000000000e+00  1.0466664770976850e+00 -1.9857719606331424e-03 0.0000000000000000e+00  1.0452859702619461e+00 7.5722162948602709e-04 0.0000000000000000e+00  1.0319652172627567e+00 9.4406517328640027e-02 0.0000000000000000e+00  1.1250002831976578e+00 -4.2335414105779546e-06 0.0000000000000000e+00  1.1249861487008836e+00 4.3976268571929680e-06 0.0000000000000000e+00  1.0461590320556018e+00 -2.2234020500131363e-04 0.0000000000000000e+00  1.0477533381872626e+00 1.1830364074305726e-02 0.0000000000000000e+00  1.0430220611354468e+00 -1.3878617743602823e-03 0.0000000000000000e+00  1.0526501958631971e+00 -1.4755898133731748e-02 0.0000000000000000e+00  1.0463039128990124e+00 -6.1685624563886357e-04 0.0000000000000000e+00  1.0461123581670213e+00 1.5771962329153618e-04 0.0000000000000000e+00  1.0457713841908902e+00 3.2204791811935577e-05 0.0000000000000000e+00  1.0457661625395145e+00 -2.4920264133423801e-05 0.0000000000000000e+00  1.0454068970116350e+00 -3.8109640913481309e-04 0.0000000000000000e+00  1.0449497122837410e+00 6.0835080153335788e-05 0.0000000000000000e+00  1.0461874247477914e+00 -3.5134617190051188e-05 0.0000000000000000e+00  1.0462832989695436e+00 -2.0799907129214433e-04 0.0000000000000000e+00  1.0457626523564811e+00 -2.9350456777063621e-04 0.0000000000000000e+00  1.0462074274447961e+00 1.7316500392873968e-04 0.0000000000000000e+00  1.0477525430948968e+00 1.6430628791726635e-03 0.0000000000000000e+00  1.0463258747387285e+00 -5.8525813787453128e-05 0.0000000000000000e+00  1.0459480711179430e+00 -1.4001011035945346e-04 0.0000000000000000e+00  1.0459113329768144e+00 -1.4946884101596944e-04 0.0000000000000000e+00  1.0459179568291477e+00 1.9870838317400700e-04 0.0000000000000000e+00  1.0452192786814833e+00 -2.2303648607689913e-04 0.0000000000000000e+00  1.0459353945024907e+00 -2.6871235832289262e-05 0.0000000000000000e+00  1.0579094862159724e+00 5.1312778621262445e-01 0.0000000000000000e+00  1.0458669991111940e+00 -3.0020329273340484e-05 0.0000000000000000e+00  8.6566648490164677e-01 -5.1513242024417261e-02 0.0000000000000000e+00  1.0457768046603515e+00 -1.5143627407448513e-04 0.0000000000000000e+00  1.0459691932436854e+00 -4.1185082426129947e-05 0.0000000000000000e+00  1.3185744197741305e+00 9.5102155880626635e-02 0.0000000000000000e+00  1.0460105406413271e+00 9.4626960623055994e-05 0.0000000000000000e+00  1.2543754718984430e+00 1.7735492747869569e-01 0.0000000000000000e+00  1.0282952419567524e+00 -5.2026532050004315e-01 0.0000000000000000e+00  3.1003273055874343e-06 -7.5115070132974919e-07 0.0000000000000000e+00  1.0443336152469640e+00 -5.6042332388561570e-04 0.0000000000000000e+00  9.8657949735707655e-08 -1.0963480816729827e-06 0.0000000000000000e+00  -1.2104162037761577e-05 -3.9802854596417389e-07 0.0000000000000000e+00  1.0460284432985869e+00 -2.7559940659082872e-05 0.0000000000000000e+00  9.2002291404785032e-06 2.3927905355346437e-07 0.0000000000000000e+00  1.0455473242508300e+00 -2.7019138465459293e-04 0.0000000000000000e+00  -7.5378689792403097e-06 1.7705526661281894e-06 0.0000000000000000e+00  2.5876877639376921e-06 -7.5909856776323815e-07 0.0000000000000000e+00  1.0456351868728540e+00 4.2645952099259994e-04 0.0000000000000000e+00  -7.7768331361691996e-06 -2.0967873765240762e-06 0.0000000000000000e+00  1.0319206774673189e+00 -4.1237147691559062e-02 0.0000000000000000e+00  1.3860033739974913e+00 -9.1496928622760682e-02 0.0000000000000000e+00  1.0458980750430447e+00 -1.3332842184792860e-04 0.0000000000000000e+00  1.3352943579826939e+00 -1.2626255246669169e-01 0.0000000000000000e+00  1.0423312492150705e+00 -7.3204661650448045e-03 0.0000000000000000e+00  1.3727555203537347e+00 1.2769217523477114e-01 0.0000000000000000e+00  1.0401657068970200e+00 3.3660434464045227e-03 0.0000000000000000e+00  1.0459827980471821e+00 6.0215775303443026e-05 0.0000000000000000e+00  1.0445164927082560e+00 -1.4573534086181981e-03 0.0000000000000000e+00  -3.2510546048882718e-06 2.6697496723770667e-06 0.0000000000000000e+00  1.0456890741300189e+00 -3.1144633726858410e-04 0.0000000000000000e+00  1.0460203235500987e+00 -1.1721500147819367e-04 0.0000000000000000e+00  1.0459383567308365e+00 6.6414063918646026e-06 0.0000000000000000e+00  1.0458784361497335e+00 5.3211763451573559e-06 0.0000000000000000e+00  1.0458780961889411e+00 -4.3892592685906612e-04 0.0000000000000000e+00  -7.8771366964805977e-06 -1.6378799628294146e-06 0.0000000000000000e+00  1.0460518431365873e+00 1.1066618782795836e-04 0.0000000000000000e+00  1.0459646856803471e+00 -2.2173359055290736e-04 0.0000000000000000e+00  1.2645016187574016e+00 -1.0025723605500492e-01 0.0000000000000000e+00  1.0459323554631856e+00 1.4072352281493275e-04 0.0000000000000000e+00  1.0459223189535414e+00 -6.8938732602985488e-05 0.0000000000000000e+00  -1.7164771301246280e-06 -1.7227937019513507e-06 0.0000000000000000e+00  -1.9324004440146445e-05 8.9110434024289935e-08 0.0000000000000000e+00  1.0459799267072540e+00 -4.2613485613054400e-04 0.0000000000000000e+00  1.0455408581821608e+00 -1.2957104378250451e-05 0.0000000000000000e+00  1.0749033556715417e+00 -3.0593894743251030e-02 0.0000000000000000e+00  1.0459932483109009e+00 -4.7706631923017074e-05 0.0000000000000000e+00  -4.0854266406036526e-05 -3.3320872720402265e-05 0.0000000000000000e+00  6.5625647724811187e-01 3.0035131998815273e-05 0.0000000000000000e+00  1.0449784550909886e+00 -4.2639269015742702e-04 0.0000000000000000e+00  1.0489107437351024e+00 -5.2125939104209502e-03 0.0000000000000000e+00  1.0458813355247658e+00 3.2081174636567440e-03 0.0000000000000000e+00  -1.3992886799670424e-05 1.0639901625773537e-06 0.0000000000000000e+00  1.0453174170102346e+00 -2.1917897161211067e-04 0.0000000000000000e+00  1.0458656664461043e+00 -9.4158013602636123e-05 0.0000000000000000e+00  -6.8925831744791352e-06 -6.3801039119681337e-07 0.0000000000000000e+00  -1.6031993875394212e-05 1.6718529365392843e-06 0.0000000000000000e+00  -6.4323237894594459e-06 1.4833175254155455e-06 0.0000000000000000e+00  2.8902355779848076e-06 -6.0698809011355352e-07 0.0000000000000000e+00  -1.1146348652367263e-05 3.6943815086355307e-07 0.0000000000000000e+00  -3.6033109196361601e-07 -1.5229397033915405e-06 0.0000000000000000e+00  -3.2125117532903543e-06 -1.0898426477525097e-06 0.0000000000000000e+00  6.0614453125653616e-06 -3.8476799266667268e-07 0.0000000000000000e+00  3.5088037890831721e-06 -2.0494732477206828e-06 0.0000000000000000e+00  -1.0126649478033316e-05 8.6906600366010272e-08 0.0000000000000000e+00  4.0991788534052264e-06 -7.1131624165060285e-07 0.0000000000000000e+00  -4.8262911966574434e-05 9.6640086591518776e-06 0.0000000000000000e+00  -4.0874397652638857e-06 -8.3925220426462061e-07 0.0000000000000000e+00  -5.2060355327155645e-06 9.6524080663864473e-07 0.0000000000000000e+00  1.5377382194491345e-07 2.9188347914826267e-06 0.0000000000000000e+00  -8.1198680129495387e-06 -1.7608330217509565e-06 0.0000000000000000e+00  -9.2943754080074785e-06 1.3708806251408146e-06 0.0000000000000000e+00  -8.6388663862194265e-07 -1.0740761678516356e-06 0.0000000000000000e+00  4.3277453736198458e-07 -3.4421463536929854e-07 0.0000000000000000e+00  1.0434228858147825e+00 2.0674822175064671e-03 0.0000000000000000e+00  1.0438975373182349e+00 -1.2590850850380716e-04 0.0000000000000000e+00  1.0451893757972328e+00 1.2082160678766587e-03 0.0000000000000000e+00  1.0454291861475722e+00 1.4435339888695918e-03 0.0000000000000000e+00  1.0460015024986100e+00 1.9697058906432430e-05 0.0000000000000000e+00  1.0460620300007657e+00 9.6738188041434984e-05 0.0000000000000000e+00  1.0454759530980493e+00 -2.4559509341095473e-04 0.0000000000000000e+00  1.0427256713067312e+00 2.5054486715685672e-03 0.0000000000000000e+00  9.9372814545054222e-01 1.4663783248889206e-02 0.0000000000000000e+00  1.0944031777878931e+00 4.1022504160901592e-02 0.0000000000000000e+00  9.1025670410157555e-01 3.3035289200215151e-01 0.0000000000000000e+00  1.0465576874024087e+00 2.0933547709247767e-04 0.0000000000000000e+00  1.0462263870384618e+00 1.2292544827774608e-04 0.0000000000000000e+00  1.0461052870470875e+00 1.2892714265283568e-04 0.0000000000000000e+00  1.0459689155044403e+00 4.1885759979249728e-05 0.0000000000000000e+00  1.0451326550234730e+00 -3.0418320550248783e-04 0.0000000000000000e+00  1.0446222139986190e+00 -2.2586541577993143e-04 0.0000000000000000e+00  1.0456848440447020e+00 8.5054462627627396e-04 0.0000000000000000e+00  1.0458467175379680e+00 9.2318264422559701e-05 0.0000000000000000e+00  1.0461837733355244e+00 -6.3137994421234568e-05 0.0000000000000000e+00  1.0449782212651912e+00 -2.0422621743000473e-04 0.0000000000000000e+00  9.8968446562304835e-01 -3.6903554299843649e-01 0.0000000000000000e+00  1.0460118170836932e+00 -1.9203527974224852e-05 0.0000000000000000e+00  1.0460309080920851e+00 9.2451565983273432e-05 0.0000000000000000e+00  1.0460575689559086e+00 7.3070748004905076e-05 0.0000000000000000e+00  1.0460668338286814e+00 -4.9618826317492056e-05 0.0000000000000000e+00  1.0460364608261332e+00 -3.9140391609830834e-05 0.0000000000000000e+00  1.0460659489572348e+00 -5.1634851734728720e-05 0.0000000000000000e+00  1.0454864993437294e+00 -2.4263986374576836e-04 0.0000000000000000e+00  1.0459780391833031e+00 -4.1464288804659422e-05 0.0000000000000000e+00  1.0448269959260557e+00 -2.6292581297689008e-04 0.0000000000000000e+00  1.0458993264182941e+00 -1.1393961133616091e-03 0.0000000000000000e+00  6.5625099150231303e-01 -3.5798058983749117e-05 0.0000000000000000e+00  1.0434681951492286e+00 -6.5745020105299496e-04 0.0000000000000000e+00  1.0449072268418698e+00 -6.7265066936477100e-05 0.0000000000000000e+00  1.0354298137848528e+00 3.0764199255364090e-02 0.0000000000000000e+00  1.0464889779021651e+00 -1.9766982558640765e-04 0.0000000000000000e+00  1.0458588702691778e+00 -1.2450464313516920e-04 0.0000000000000000e+00  1.0458774632672063e+00 -4.7925192753584577e-05 0.0000000000000000e+00  1.0462524376682154e+00 1.1656336367929735e-04 0.0000000000000000e+00  1.0459657507746629e+00 4.3888752717627151e-05 0.0000000000000000e+00  1.0458988967773009e+00 9.6621021095954094e-05 0.0000000000000000e+00  1.0541883747365244e+00 1.3523059848290723e-02 0.0000000000000000e+00  1.0456568377913709e+00 2.0650292551814844e-03 0.0000000000000000e+00  1.0430937986913247e+00 5.9185389504470929e-04 0.0000000000000000e+00  1.0459311536029845e+00 -4.4441343840661154e-05 0.0000000000000000e+00  1.0463615988851898e+00 -9.0505527402748038e-04 0.0000000000000000e+00  1.0450808095520245e+00 -1.9091736725348727e-03 0.0000000000000000e+00  1.0472808255937387e+00 5.7290804256815181e-04 0.0000000000000000e+00  1.0505165161894112e+00 -5.3882449004630179e-03 0.0000000000000000e+00  1.0448032260975257e+00 -2.8692368042768839e-04 0.0000000000000000e+00  1.0377181844937227e+00 -6.8817298148909380e-04 0.0000000000000000e+00  9.5131532526664730e-01 9.8829622158313618e-02 0.0000000000000000e+00  1.0410161010291081e+00 3.0059300915625257e-04 0.0000000000000000e+00  1.0438280484036730e+00 1.0513295633086876e-03 0.0000000000000000e+00  1.0460554237546920e+00 3.3463664333833641e-06 0.0000000000000000e+00  1.0459691709136354e+00 -1.1276821556699770e-04 0.0000000000000000e+00  1.1734661076667185e+00 1.9860587296325813e-01 0.0000000000000000e+00  1.0465064677509177e+00 -6.4667121817058569e-04 0.0000000000000000e+00  1.0458430984476808e+00 3.6654860930776019e-04 0.0000000000000000e+00  1.0459161745863734e+00 4.5770796385537469e-05 0.0000000000000000e+00  1.0466196070622966e+00 9.0666044564973727e-04 0.0000000000000000e+00  1.1892063354571045e+00 5.1044597987156812e-02 0.0000000000000000e+00  1.0459920931947757e+00 -1.2776944193968167e-04 0.0000000000000000e+00  1.0458989903505469e+00 8.4961982943923690e-07 0.0000000000000000e+00  1.0461150020730250e+00 5.0136646122794356e-05 0.0000000000000000e+00  1.0458422470294377e+00 -8.2736766938204068e-05 0.0000000000000000e+00  1.0390930497125814e+00 -2.3941871549152199e-03 0.0000000000000000e+00  1.0406802500794561e+00 -5.0737680582038799e-04 0.0000000000000000e+00  1.0457725762261099e+00 -2.3086481179603079e-04 0.0000000000000000e+00  1.0456549439486789e+00 -3.4310458278956357e-05 0.0000000000000000e+00  1.0452108920209005e+00 1.9855696190580017e-04 0.0000000000000000e+00  1.0459940905002685e+00 1.4743201850971356e-04 0.0000000000000000e+00  1.0390182010226197e+00 7.0832409993274077e-04 0.0000000000000000e+00  1.0459429824463671e+00 -8.1219496420657683e-05 0.0000000000000000e+00  1.0460227315275268e+00 -1.5187115095496401e-04 0.0000000000000000e+00  1.2919287886873017e+00 3.6762371235818547e-02 0.0000000000000000e+00  1.0460674943022263e+00 -6.8267307757692691e-05 0.0000000000000000e+00  1.0461517774876057e+00 -9.6244271488667277e-05 0.0000000000000000e+00  1.0458975815997780e+00 8.9332216848323401e-05 0.0000000000000000e+00  1.0419146956319472e+00 4.9347563121297127e-04 0.0000000000000000e+00  1.0459512403055242e+00 1.9256194481266683e-04 0.0000000000000000e+00  1.0374933727393532e+00 -1.6529018379881258e-02 0.0000000000000000e+00  1.0432741454416676e+00 3.0106351362223126e-05 0.0000000000000000e+00  6.6756618641684573e-01 -2.9193003721348204e-01 0.0000000000000000e+00  1.1665550823906210e+00 -6.0937550737258914e-02 0.0000000000000000e+00  1.0445485011467062e+00 4.0953099810089237e-04 0.0000000000000000e+00  1.0358884163985504e+00 -4.0564437482551907e-04 0.0000000000000000e+00  1.3312290508508176e+00 3.9233995750011852e-01 0.0000000000000000e+00  1.1125003031954497e+00 1.9651518165609297e-01 0.0000000000000000e+00  1.0445343499533173e+00 -3.5093335271561845e-03 0.0000000000000000e+00  1.4928301395329442e+00 -1.1288790280051510e-01 0.0000000000000000e+00  1.3053338523781648e+00 -4.4683802061045880e-01 0.0000000000000000e+00  1.0933620750504780e+00 -2.1738375405661697e-01 0.0000000000000000e+00  1.0404863975538838e+00 -1.8057831314382893e-03 0.0000000000000000e+00  1.0446456608698020e+00 -7.9759838154425187e-04 0.0000000000000000e+00  1.0397020487040756e+00 3.6652337241275629e-04 0.0000000000000000e+00  1.0475663146531178e+00 9.7617453130945868e-04 0.0000000000000000e+00  1.0459844964973397e+00 -3.1764545398896158e-04 0.0000000000000000e+00  1.0384133451992363e+00 -2.3878460951792927e-03 0.0000000000000000e+00  1.4062448971907169e+00 -7.9893829745257893e-06 0.0000000000000000e+00  1.0473856189882371e+00 -3.9733094163562255e-04 0.0000000000000000e+00  1.0454822667757551e+00 4.5689212979128516e-03 0.0000000000000000e+00  1.4062441331521556e+00 8.7859485151231255e-06 0.0000000000000000e+00  1.0462358170223096e+00 1.2033065724003196e-04 0.0000000000000000e+00  1.0458411111685353e+00 -8.7179261749989860e-05 0.0000000000000000e+00  1.2621063684925362e+00 -1.3162083710721098e-02 0.0000000000000000e+00  1.0459760206278415e+00 6.9602044106821618e-05 0.0000000000000000e+00  7.8844990003957349e-01 2.8151032530144854e-01 0.0000000000000000e+00  1.0467160079980153e+00 -2.3495373140258662e-04 0.0000000000000000e+00  1.0455751074595958e+00 -1.2615790356544766e-03 0.0000000000000000e+00  1.0403922149447526e+00 2.7300397686253223e-03 0.0000000000000000e+00  1.0388107196767435e+00 1.4126625880820619e-03 0.0000000000000000e+00  1.0458536552797193e+00 -9.6160548464903743e-05 0.0000000000000000e+00  1.0381994499017340e+00 1.3673354533162917e-03 0.0000000000000000e+00  1.0413658800205505e+00