<?xml version="1.0"?>
<VTKFile type="UnstructuredGrid"  version="0.1"  >
<UnstructuredGrid>
<Piece  NumberOfPoints="2446" NumberOfCells="4585">
<Points>
<DataArray  type="Float64"  NumberOfComponents="3"  format="ascii">0 0.41 0  0 0 0  2.2 0 0  2.2 0.41 0  0.2404508497187474 0.2293892626146237 0  0.25 0.2 0  0.2404508497187474 0.1706107373853764 0  0.2154508497187474 0.1524471741852423 0  0.1845491502812526 0.1524471741852423 0  0.1595491502812526 0.1706107373853764 0  0.15 0.2 0  0.1595491502812526 0.2293892626146237 0  0.1845491502812527 0.2475528258147577 0  0.2154508497187474 0.2475528258147577 0  1.1 0 0  1.1 0.41 0  0 0.205 0  0.55 0 0  0.55 0.41 0  0.275 0 0  0.275 0.41 0  1.65 0.41 0  1.65 0 0  0.8250000000000001 0.41 0  0.8250000000000001 0 0  1.375 0 0  1.375 0.41 0  1.925 0 0  1.925 0.41 0  1.5125 0.205 0  1.7875 0.205 0  0.6875 0.205 0  0.9625000000000001 0.205 0  1.2375 0.205 0  2.2 0.205 0  0.4687002074688797 0.2068568464730291 0  1.99375 0.2152743902439024 0  2.0625 0 0  2.0625 0.41 0  2.2 0.3075 0  0.4125 0 0  0.4125 0.41 0  1.7875 0.41 0  1.375 0.1486128048780488 0  1.5125 0 0  1.7875 0 0  1.5125 0.41 0  0.8250000000000001 0.2613871951219511 0  0.9625000000000001 0.41 0  0.9625000000000001 0 0  0.6875 0.41 0  0.6875 0 0  0.1375 0 0  0.1375 0.41 0  1.2375 0 0  1.1 0.1486128048780487 0  1.2375 0.41 0  1.65 0.1486128048780487 0  1.126715909090909 0.2793064024390244 0  1.676715909090909 0.2793064024390244 0  0.8517159090909092 0.1306935975609756 0  1.348284090909091 0.2793064024390244 0  0.34375 0.3032389320646208 0  1.894702181800738 0.1282910975492754 0  2.092797818199262 0.1282910975492754 0  1.85625 0.3075 0  0.61875 0.3075 0  0.61875 0.1025 0  0.3648540804333487 0.1240075933101478 0  0 0.3075 0  0 0.1025 0  2.099172119769978 0.25625 0  0.48125 0.09238439620688085 0  0.5781001037344399 0.2059284232365146 0  0.48125 0.3196743479159776 0  0.7265881057911006 0.3055240343720796 0  1.99375 0.08395950269330846 0  1.459960956013612 0.3075 0  1.569025960719943 0.2986889805672169 0  0.75625 0.08213100772579164 0  1.03125 0.3278689922742084 0  0.923871252904788 0.3078247185783941 0  1.959375 0.3126371951219512 0  1.749222215368287 0.1025 0  1.275777784631713 0.1025 0  2.2 0.1025 0  1.225938124459196 0.3075 0  1.550777784631713 0.1025 0  1.000777784631713 0.1025 0  1.44375 0.07430640243902442 0  1.16875 0.07430640243902437 0  1.899250267340833 0.2229966846119207 0  0.1020898364287272 0.3140258291809757 0  1.766482954545455 0.2934032012195123 0  0.3405058858996321 0.2119987970531874 0  0.7710785630958338 0.1710968191298857 0  1.046078563095834 0.2389031808701144 0  0.2 0.3400647632937836 0  1.421109702350723 0.2261157654379721 0  0.2800464974185557 0.08982544815605742 0  0.098916018031319 0.09171660955420841 0  2.13125 0 0  2.118919042110979 0.3422084711244843 0  1.30625 0.41 0  0.89375 0 0  1.597888256393107 0.2173787389261347 0  0.20625 0 0  1.829299675393195 0.07400700849299596 0  1.71875 0.41 0  1.16875 0.41 0  2.038220665644273 0.332420740103091 0  0.34375 0 0  0.417496017710808 0.2696595573092803 0  0.2 0.07687845740457822 0  0.9295982307099278 0.1343158415898188 0  0.07390688010811153 0.1697064032433452 0  0.5238366813727013 0.2578302467013575 0  0.05452951551825875 0.25625 0  0.5229630068078351 0.1548816096928243 0  1.452769549894695 0.1548122580621249 0  1.369219062229598 0.07430640243902442 0  1.30625 0 0  0.8504409521244898 0.3356935975609756 0  0.8821881244591965 0.205 0  1.720943423819132 0.1714577452753128 0  1.157188124459196 0.205 0  1.094219062229598 0.07430640243902437 0  1.03125 0 0  1.304056576180868 0.1714577452753128 0  1.67579304192913 0.07430640243902437 0  0.2751941921308361 0.3346083473122598 0  1.209670467133757 0.1362100266964769 0  1.025335513626278 0.1700681449722324 0  0.7562500000000001 0.41 0  1.58125 0 0  0.7567170593862014 0.2409196493502535 0  0.6926714215682891 0.1272249611432207 0  0.4139715849905988 0.3397932387114203 0  0.9840787304190477 0.2717749043358119 0  0.06875000000000001 0.41 0  0 0.35875 0  0.9281250000000001 0.06276726142697993 0  0.5507396469029935 0.3219409231578227 0  0.5504468037989405 0.09136885600634273 0  1.58125 0.41 0  1.631724228912893 0.3381867502687533 0  1.825608881788174 0.14499488549201 0  1.85625 0 0  1.44375 0 0  1.44375 0.41 0  1.85625 0.41 0  2.13125 0.41 0  0.7562500000000001 0 0  0.89375 0.41 0  0.4812500000000001 0 0  0.34375 0.41 0  0.4812500000000001 0.41 0  0.20625 0.41 0  0.06875000000000001 0 0  1.16875 0 0  0.61875 0 0  0.61875 0.41 0  1.03125 0.41 0  1.71875 0 0  1.99375 0 0  1.99375 0.41 0  1.340625 0.3489494290853124 0  1.134375 0.3489494290853123 0  1.700180620188976 0.3438659752031281 0  2.135782184673599 0.07126652247502523 0  1.668441847249787 0.2129203728327609 0  1.295782514339747 0.2378437748815763 0  0.8233075729931248 0.06842334294821524 0  1.409375 0.3520314716057996 0  0.403505597322782 0.182067236678212 0  0.378125 0.05794951541303489 0  0.3043468223249023 0.1518321115979534 0  2.129248544730567 0.1906135162504124 0  2.060771381434487 0.1989445750470348 0  2.013252586573865 0.1496169464686054 0  1.942766402200229 0.1734448904596831 0  1.895522487186454 0.06076163953489683 0  2.069553871656643 0.06605731020975725 0  1.274680914880868 0.3520219391081363 0  1.614713220494657 0.09473434380863296 0  0.7899021319497519 0.3149123934144827 0  0.69518737419149 0.0634051089053758 0  0.2971740475496061 0.2592172353407536 0  1.72990325744076 0.2380068107952482 0  1.356580098625191 0.2120393231351682 0  2.034370752044885 0.2668681600792073 0  1.51768709249349 0.3426260931494756 0  1.561883724969884 0.1650446847858835 0  1.197344062229598 0.2523725417393646 0  1.804085235518364 0.3468178408964637 0  1.817887819205233 0.2589243285818559 0  1.905897727272727 0.3485060975609756 0  0.6719798073392919 0.2688965171178177 0  0 0.05125 0  0.653125 0.35875 0  0.6396896119294488 0.1627615407790282 0  0.4274150154087412 0.1242548552168279 0  1.192836486056382 0.3562350748565544 0  0.8279124365364005 0.183856489168822 0  1.097485222388854 0.2083571153401724 0  1.28257088594801 0.2944411014911587 0  1.474860187679412 0.2504218616229368 0  1.406767003493824 0.2829282258560709 0  0.446875 0.04619219810344041 0  0.515625 0.04585361801037557 0  0.592043440706648 0.05125 0  1.845656689180403 0.1998310418452388 0  2.144958525570388 0.2909790873294231 0  0.6171090763650112 0.2492366900333857 0  2.2 0.15375 0  0.5145586920831158 0.3648371739579888 0  1.57794966442982 0.3540357145964566 0  0.721875 0.3633107922168974 0  0.0496154796471391 0.333125 0  0.5843750000000001 0.3662560860076676 0  0.5810878747760798 0.1474002776121195 0  1.508991196088596 0.1421783375065625 0  0.8840670607017558 0.2640994375393898 0  0.09776612425612034 0.2204896805326566 0  1.50436820029908 0.06143401634903343 0  1.223857000523521 0.0823554862453532 0  1.153316824384777 0.1289850171317837 0  2.148922302309752 0.1258841779285271 0  0.309375 0.04312325590431198 0  1.621993280276081 0.2841214267927899 0  1.550118654119087 0.2461998729100966 0  1.327182649291491 0.1216967252533594 0  1.051977450479407 0.1221382572915816 0  1.753125 0.04556020050186112 0  1.271875 0.04556020050186116 0  0.9816084133102366 0.05126138213476004 0  1.039051841454368 0.0572224914831029 0  0.9719230514536006 0.3480477870845102 0  1.94956388244759 0.1180512551534177 0  1.949997712993411 0.04965831614304109 0  1.771961817615021 0.1530278789497521 0  1.909246823951428 0.2812757146784527 0  0.2459536687882397 0.04668633953831142 0  1.948575539857022 0.2445328248721197 0  1.697271520964565 0.1233917627620729 0  0.7964897648514618 0.1211426571931604 0  1.065625 0.3689344961371042 0  1.085849084308977 0.3170853572226867 0  0.4702981435440001 0.260434880697798 0  1.577403511714593 0.05463601888079143 0  0.05622663515370135 0.05493816910862376 0  0.3267207591099919 0.3566194660323104 0  0.9003051618565143 0.3564049499960621 0  1.751571320346033 0.3651102912045228 0  0.1583785085108421 0.2994699345738728 0  0.1455283439499995 0.3542795598723423 0  2.2 0.35875 0  0.2347662494194072 0.298325008655211 0  0.1527284455616188 0.1065771775690181 0  0.1382139529076665 0.05427454456341477 0  0.8749341636311069 0.05110114999892954 0  0.643661668713109 0.05693499781019222 0  1.466879772203159 0.3611261772912453 0  1.990280163552011 0.3564754268533217 0  1.17471064520912 0.2990917256188288 0  0.5202693090594349 0.206382495511728 0  0 0.25625 0  2.2 0.25625 0  2.2 0.05125 0  0 0.15375 0  1.853978576207987 0.35875 0  0.9787513713939683 0.1487523696999336 0  0.240625 0.3722153812029779 0  1.515638456102889 0.2882700110184686 0  0.09048297387599738 0.3637717362208066 0  2.150453692751374 0.2387066338105111 0  1.323782677156475 0.04897634338873398 0  0.8074131292871642 0.3624701995505916 0  1.409375 0.03715320121951221 0  1.406484531114799 0.1087852750766809 0  1.134375 0.03715320121951218 0  1.627401732573545 0.04552157221025036 0  0.1170173172005315 0.1427610859166811 0  2.045405893604797 0.1105340662939892 0  1.255408269734577 0.1577307500159216 0  2.028125 0.03707597992059326 0  0.4743610090857199 0.1421513964721819 0  0.9354010469015898 0.250631300585664 0  0.04420832937638274 0.128125 0  0.8922386349349938 0.0992956419364831 0  0.1197849154434487 0.2663398672460083 0  1.248258025468107 0.2565907092181813 0  0.3746885856929528 0.370723531618974 0  1.203125 0.0366132337404304 0  0.5724622277005015 0.2751253816079333 0  0.3365425205162783 0.08395777655057959 0  2.072662025974815 0.2975086504196739 0  0.4581080832182547 0.3648371739579888 0  0.3874522734668214 0.2295447548840689 0  0.7827853612484443 0.04106550386289586 0  1.887722846421017 0.1760882698830035 0  1.472640588990488 0.1118278026240017 0  1.865937103925594 0.2604137786483804 0  1.463913572748262 0.2030442564990043 0  1.376426316059077 0.3186741374914345 0  0.6641993820150034 0.3141688596240831 0  0.2943117490824315 0.2130987422685822 0  0.3478153998082709 0.1666571081082676 0  0.3427990510599805 0.2575950027870776 0  0.7997118993855807 0.2216171933356366 0  
[...]
<PointData  Vectors="f_31"> 
<DataArray  type="Float64"  Name="f_31"  NumberOfComponents="3" format="ascii">2.2103025542335020e-06 3.2868318160379431e-08 0.0000000000000000e+00  -2.2884064208577928e-06 -3.7221617138772069e-08 0.0000000000000000e+00  3.7950865018276193e-06 -2.2299364312149429e-09 0.0000000000000000e+00  -1.6289978474334007e-05 -7.8461864983240306e-09 0.0000000000000000e+00  -3.8305884720941832e-06 -4.2701215518596079e-06 0.0000000000000000e+00  -7.7056164772085636e-07 -1.4649370579510795e-05 0.0000000000000000e+00  1.6481920964153179e-06 -9.5827959390833825e-06 0.0000000000000000e+00  -5.3605771923070954e-06 4.3536666265560028e-06 0.0000000000000000e+00  -3.6480496075646276e-07 3.6219483427068484e-06 0.0000000000000000e+00  6.7309272413796370e-06 -2.5061240659278526e-06 0.0000000000000000e+00  1.9716421323929452e-07 -7.4279392210962097e-07 0.0000000000000000e+00  -1.4653565174707004e-05 -4.2494697253924862e-06 0.0000000000000000e+00  4.0583678741102033e-06 6.7926912158832252e-06 0.0000000000000000e+00  -1.3464617455627323e-05 3.7428912895166980e-07 0.0000000000000000e+00  -2.5250175629313343e-06 4.9840405828945029e-09 0.0000000000000000e+00  5.8299258240575563e-08 -6.9336526822611841e-09 0.0000000000000000e+00  1.5000043532142382e+00 -1.3898609507437314e-06 0.0000000000000000e+00  1.2513252647010033e-05 -9.7143738838359350e-07 0.0000000000000000e+00  7.5394650770773814e-06 6.8896355245774806e-07 0.0000000000000000e+00  2.1051943321220303e-06 2.8556242628201299e-07 0.0000000000000000e+00  -2.3064673872136635e-06 -3.8426045126172606e-08 0.0000000000000000e+00  4.0182821772588551e-07 -2.1173607363488362e-09 0.0000000000000000e+00  3.9123087251405575e-07 -1.2422444909894918e-08 0.0000000000000000e+00  1.1695173115774200e-06 6.2548980644746067e-08 0.0000000000000000e+00  -5.1052598279768553e-06 -1.3050420282115456e-08 0.0000000000000000e+00  -3.7675446058074789e-06 2.2219365676777832e-09 0.0000000000000000e+00  -7.0278926175761187e-07 1.3402142900943738e-08 0.0000000000000000e+00  -2.8941671721494379e-06 1.8350922284403672e-08 0.0000000000000000e+00  -2.1946749196823296e-06 -1.1514013753573857e-08 0.0000000000000000e+00  1.1380270772667296e+00 4.6433368895450923e-05 0.0000000000000000e+00  1.1381203528498223e+00 2.7895687549851281e-05 0.0000000000000000e+00  1.1803371369632325e+00 -4.3526813414090031e-02 0.0000000000000000e+00  1.1387686593419775e+00 -2.1250944174052368e-03 0.0000000000000000e+00  1.1376983832687146e+00 -1.0896551695626356e-04 0.0000000000000000e+00  1.1379958695613495e+00 -4.6679018924680682e-05 0.0000000000000000e+00  -1.8900559539754860e-01 -1.5222257662305166e-01 0.0000000000000000e+00  1.1379907004549510e+00 -5.2892484586002829e-05 0.0000000000000000e+00  3.2616821451798653e-07 8.1046326257429368e-09 0.0000000000000000e+00  -8.7240300859016587e-07 -1.1031857478416750e-08 0.0000000000000000e+00  1.1361610597459511e+00 -4.1884126828598358e-05 0.0000000000000000e+00  -2.8298248704204453e-06 2.0568809064724772e-07 0.0000000000000000e+00  3.4931563475805005e-06 -4.1062341413409585e-07 0.0000000000000000e+00  -5.9102557431382985e-06 -9.7289341870237509e-09 0.0000000000000000e+00  1.1378748528497415e+00 1.7351969951359994e-05 0.0000000000000000e+00  9.6138682425739243e-08 -5.4869477737350780e-09 0.0000000000000000e+00  -4.0793525199147648e-06 6.4638130409079831e-09 0.0000000000000000e+00  1.0912214590438897e-06 4.1605801658446382e-09 0.0000000000000000e+00  1.1512682710059015e+00 2.2097698271290396e-03 0.0000000000000000e+00  -1.6231679474432327e-06 -1.0924377522769320e-08 0.0000000000000000e+00  2.4032405315588942e-06 3.1395652405800886e-09 0.0000000000000000e+00  -7.2780035411044354e-06 -1.0720956789183439e-06 0.0000000000000000e+00  -1.7843832837911203e-05 1.1344632935423269e-06 0.0000000000000000e+00  -3.6316394016672597e-06 6.0170572122070332e-07 0.0000000000000000e+00  -5.6918690947287893e-06 -5.5828162494368540e-07 0.0000000000000000e+00  3.1932457669491584e-07 6.9212051363011500e-09 0.0000000000000000e+00  1.1376052097792779e+00 -4.7706249112728142e-04 0.0000000000000000e+00  -1.5173487574004810e-06 1.1742019075459644e-09 0.0000000000000000e+00  1.1381660059141321e+00 3.3741428562642603e-05 0.0000000000000000e+00  1.1380658625397482e+00 -2.2291106801042320e-04 0.0000000000000000e+00  1.1378066347871385e+00 1.1122575034921856e-04 0.0000000000000000e+00  1.1356229921438477e+00 -1.2082946470794722e-02 0.0000000000000000e+00  1.1378521058853150e+00 -1.3190553651386944e-05 0.0000000000000000e+00  2.0166028907786107e+00 -1.3465693767565010e-01 0.0000000000000000e+00  1.1378900274631876e+00 -9.3408648722294928e-05 0.0000000000000000e+00  1.1380096104064203e+00 -1.5566440088138857e-04 0.0000000000000000e+00  1.1359080239554102e+00 8.6533097311892149e-06 0.0000000000000000e+00  1.2503378043655040e+00 1.8483727790793651e-02 0.0000000000000000e+00  1.1983735465644547e+00 -2.7624187689272564e-02 0.0000000000000000e+00  1.5720475876622579e+00 1.5012645906878547e-01 0.0000000000000000e+00  1.1249989940588607e+00 -6.4096714942542530e-07 0.0000000000000000e+00  1.1249901907817410e+00 -2.9183273826425085e-07 0.0000000000000000e+00  1.1379024179398087e+00 -3.1575787158757178e-05 0.0000000000000000e+00  1.5751871616895783e+00 3.6420515220036886e-01 0.0000000000000000e+00  8.5018888319450647e-01 5.8699694491534317e-02 0.0000000000000000e+00  1.4549334909303098e+00 -2.5222065336542293e-01 0.0000000000000000e+00  1.1543257886945697e+00 8.9572350821001206e-02 0.0000000000000000e+00  1.1287417018872687e+00 2.9846214369158850e-05 0.0000000000000000e+00  1.1365725264560671e+00 -9.1634854686120635e-05 0.0000000000000000e+00  1.1371315793497085e+00 8.7683013040316081e-05 0.0000000000000000e+00  1.0941646285927582e+00 -5.0396621322427948e-02 0.0000000000000000e+00  1.1269474890305360e+00 -9.0660837926627713e-07 0.0000000000000000e+00  1.1378686922199468e+00 6.5489621617278028e-04 0.0000000000000000e+00  1.1354304170604299e+00 -5.6102100100971053e-06 0.0000000000000000e+00  1.1357725298730126e+00 -2.7060094838728978e-04 0.0000000000000000e+00  1.1365304551112161e+00 -1.0586719687860060e-04 0.0000000000000000e+00  1.1360370840988190e+00 -2.7366193997271329e-04 0.0000000000000000e+00  1.1365333281433065e+00 -1.3244984225744146e-05 0.0000000000000000e+00  1.1364607317243289e+00 1.4423179929255161e-04 0.0000000000000000e+00  1.1352233722374041e+00 -1.1563461476767109e-03 0.0000000000000000e+00  1.1168492314838030e+00 2.9353096735432993e-05 0.0000000000000000e+00  1.1165523851181114e+00 1.4707692486442912e-05 0.0000000000000000e+00  1.1380239728855335e+00 -5.2328712125456685e-06 0.0000000000000000e+00  1.1915175973532841e+00 2.6135575780135639e-01 0.0000000000000000e+00  1.1373325139988839e+00 6.6439175329100622e-05 0.0000000000000000e+00  -5.4643055392887419e-01 3.3231421608578504e-02 0.0000000000000000e+00  1.1537517447237047e+00 -2.6429305025342940e-02 0.0000000000000000e+00  1.1383517597642361e+00 -6.9631083808204431e-04 0.0000000000000000e+00  1.4099888088285986e+00 2.2986813172157969e-01 0.0000000000000000e+00  1.1377779065327072e+00 -2.6180961906686854e-05 0.0000000000000000e+00  1.8733571325451877e+00 -1.1385902634638127e-01 0.0000000000000000e+00  1.1368124473357348e+00 -2.4317044988881312e-01 0.0000000000000000e+00  -5.6333185102315851e-07 1.0122015433232728e-08 0.0000000000000000e+00  1.1016387806590293e+00 1.9038916213526020e-04 0.0000000000000000e+00  -1.7971573980001442e-06 2.3771125336027432e-09 0.0000000000000000e+00  -6.5799268533166635e-06 4.1712196578543864e-08 0.0000000000000000e+00  1.1381120859640570e+00 3.4076201994703906e-05 0.0000000000000000e+00  1.5809078407549046e-06 -4.6740583441240187e-07 0.0000000000000000e+00  1.1159162746579396e+00 1.0228223909071847e-05 0.0000000000000000e+00  -2.5513382834280740e-06 -7.4440595491660550e-10 0.0000000000000000e+00  -2.0326691486768864e-06 -1.9429878362398975e-09 0.0000000000000000e+00  1.1218984619478154e+00 -1.3239266230862543e-06 0.0000000000000000e+00  -3.1358457845007072e-06 6.1451929016544215e-08 0.0000000000000000e+00  1.6933800099924490e+00 -4.6112552760034586e-01 0.0000000000000000e+00  1.5141130765469655e+00 -2.8031011834116543e-01 0.0000000000000000e+00  1.1363935714912625e+00 -4.0586024175626109e-03 0.0000000000000000e+00  1.3345318082799618e+00 -9.5568881251880858e-02 0.0000000000000000e+00  1.4640702802540582e+00 -2.5541269441631226e-01 0.0000000000000000e+00  1.3746338533111384e+00 1.3427447887155372e-01 0.0000000000000000e+00  1.3691788779312495e+00 4.1687457224609803e-01 0.0000000000000000e+00  1.1378602569188634e+00 6.6926714528219879e-05 0.0000000000000000e+00  1.1159234621037668e+00 -8.9789056403740176e-05 0.0000000000000000e+00  -6.1466802234552725e-07 1.7446667582407936e-09 0.0000000000000000e+00  1.1141234575678804e+00 5.5058866168343481e-03 0.0000000000000000e+00  1.1420812803965992e+00 -4.9715161419225402e-03 0.0000000000000000e+00  1.1380240617954709e+00 5.6108913196008299e-05 0.0000000000000000e+00  1.1376939566288240e+00 -2.4776260760757640e-04 0.0000000000000000e+00  1.1163861563085129e+00 -1.7303631517996508e-04 0.0000000000000000e+00  -2.9220081376462170e-06 8.9631956702015101e-09 0.0000000000000000e+00  1.1378177837014314e+00 -3.0936915773182502e-05 0.0000000000000000e+00  1.1161309524663388e+00 -1.0954362550612624e-04 0.0000000000000000e+00  1.6721916146236484e+00 7.1796621077329426e-02 0.0000000000000000e+00  1.1378199104550990e+00 -9.7930578040421822e-05 0.0000000000000000e+00  1.1376707926861436e+00 -1.2172752504483247e-03 0.0000000000000000e+00  -6.7802464185562833e-06 1.0445453754643827e-07 0.0000000000000000e+00  -1.3161473751862570e-05 -9.4852430394404414e-09 0.0000000000000000e+00  1.1838995614542900e+00 -1.6384015998933141e-03 0.0000000000000000e+00  1.2064566022681944e+00 -1.3545495435757535e-01 0.0000000000000000e+00  1.4933879353716621e+00 -2.2554248746493316e-01 0.0000000000000000e+00  1.1391208654563632e+00 -6.3288852742514725e-04 0.0000000000000000e+00  -3.1810671630049470e-06 -3.3238883548451008e-07 0.0000000000000000e+00  6.5625068189737557e-01 -2.1573762284526350e-07 0.0000000000000000e+00  1.0812523756250536e+00 -1.3162172092490072e-03 0.0000000000000000e+00  1.2614437544007444e+00 -9.0168541773945718e-02 0.0000000000000000e+00  1.3019409045013877e+00 1.6882681528076215e-01 0.0000000000000000e+00  -4.7402638201079973e-06 8.9153697991037311e-09 0.0000000000000000e+00  1.1119911413212895e+00 2.9708193135518783e-04 0.0000000000000000e+00  1.1380291212481632e+00 9.3164629003572397e-06 0.0000000000000000e+00  -3.4822253758373163e-06 8.2745708715708894e-09 0.0000000000000000e+00  -1.0313456527189974e-05 5.7698881387447449e-09 0.0000000000000000e+00  -4.1973727801094822e-06 -2.8835753333655342e-08 0.0000000000000000e+00  1.6800368689759280e-06 1.6405424067284542e-08 0.0000000000000000e+00  -2.2879933981756364e-06 1.3979851670790967e-09 0.0000000000000000e+00  -6.4412440560163664e-06 -1.5108776505008760e-07 0.0000000000000000e+00  1.1054288614245329e-06 -7.5246827305617521e-09 0.0000000000000000e+00  5.5115992274481911e-06 -1.1990349860671442e-06 0.0000000000000000e+00  8.6940610154596001e-06 -5.0931064538886182e-07 0.0000000000000000e+00  7.3462791886518187e-07 7.3294087502711982e-07 0.0000000000000000e+00  -3.5624259683903223e-06 -3.0634082428251916e-07 0.0000000000000000e+00  1.0693728236467237e-06 1.0612470355214188e-07 0.0000000000000000e+00  -1.7463146981886032e-07 -2.5094309249906677e-09 0.0000000000000000e+00  -2.7643034975666738e-06 1.4113228118772602e-06 0.0000000000000000e+00  -3.7189210749665968e-06 -2.5678063405092920e-07 0.0000000000000000e+00  -9.0003377551995888e-07 -5.8592420454505711e-09 0.0000000000000000e+00  -7.4231200757749151e-06 -4.9816043486286239e-09 0.0000000000000000e+00  -2.1226014822631158e-06 -6.9135057450653998e-09 0.0000000000000000e+00  -6.2877077118678874e-07 1.7104466350965986e-08 0.0000000000000000e+00  1.0770992852440171e+00 1.6736402644360374e-04 0.0000000000000000e+00  1.0779448277511232e+00 -1.8613213884040846e-05 0.0000000000000000e+00  1.0965787329012164e+00 1.4750150655844799e-04 0.0000000000000000e+00  1.1099915359266175e+00 -2.8262218490792600e-04 0.0000000000000000e+00  1.1381040198627361e+00 7.3468156894731089e-05 0.0000000000000000e+00  1.1377709718885753e+00 -4.7309337955030237e-05 0.0000000000000000e+00  1.0859086491559313e+00 -1.2425622314961166e-02 0.0000000000000000e+00  1.0631591526212734e+00 -6.7237585598493437e-05 0.0000000000000000e+00  -4.9260888863364544e-01 -2.9739451282379075e-02 0.0000000000000000e+00  1.5662189163334419e+00 1.5591019843078241e-01 0.0000000000000000e+00  2.7724421135313798e-01 -1.2700167078671651e-01 0.0000000000000000e+00  1.1379479195392654e+00 -4.7850303811042754e-05 0.0000000000000000e+00  1.1380651529822985e+00 -5.3026487321210705e-05 0.0000000000000000e+00  1.1381181149926691e+00 -7.0256813602150942e-05 0.0000000000000000e+00  1.1380286323625475e+00 -5.0382073531132043e-05 0.0000000000000000e+00  1.0756382102996829e+00 -9.9894335100004971e-05 0.0000000000000000e+00  1.0962439766228542e+00 -2.4611383507057346e-04 0.0000000000000000e+00  1.0637552148721980e+00 8.9959544579600758e-05 0.0000000000000000e+00  1.1344929744319880e+00 2.0372349182974325e-05 0.0000000000000000e+00  1.1392167524915899e+00 2.3626061066892256e-02 0.0000000000000000e+00  9.6776621266834784e-01 -1.0339761934303610e-01 0.0000000000000000e+00  7.3170027071286725e-01 8.5091739291276378e-02 0.0000000000000000e+00  1.1379886485935709e+00 4.0773917523181588e-05 0.0000000000000000e+00  1.1377013358931978e+00 -4.0695307509464049e-05 0.0000000000000000e+00  1.1379447608570097e+00 -1.1088987898779487e-05 0.0000000000000000e+00  1.1005979784488384e+00 9.3695722182883553e-05 0.0000000000000000e+00  1.1380710466827890e+00 8.4235530845040921e-05 0.0000000000000000e+00  1.1379014279602380e+00 -1.1189225125539132e-04 0.0000000000000000e+00  1.0871181349056578e+00 -6.3823048878104094e-05 0.0000000000000000e+00  1.1378814632724084e+00 8.9074752670080367e-06 0.0000000000000000e+00  1.0800057298585917e+00 1.3443659737713139e-04 0.0000000000000000e+00  1.3496444877198135e+00 2.7608686779138671e-02 0.0000000000000000e+00  6.5624823842355462e-01 -2.7143630404911990e-07 0.0000000000000000e+00  8.4297297999396803e-01 8.1183349308381905e-02 0.0000000000000000e+00  1.3003739453194232e+00 1.6259545130695965e-02 0.0000000000000000e+00  1.7637479354803429e+00 4.2415870189269683e-01 0.0000000000000000e+00  1.0389386078188987e+00 2.8532800461443660e-05 0.0000000000000000e+00  1.1453987359328102e+00 -1.2498063440740604e-02 0.0000000000000000e+00  1.1377806690712913e+00 -5.1341231651150611e-04 0.0000000000000000e+00  1.1376715185671176e+00 -7.2127128063714837e-06 0.0000000000000000e+00  1.1378276068518471e+00 -2.7025429116978902e-05 0.0000000000000000e+00  1.1378239065981306e+00 -7.5167261506434258e-05 0.0000000000000000e+00  1.1493454576891360e+00 1.8109076563030449e-01 0.0000000000000000e+00  8.0397050751012344e-01 9.5958667697037939e-02 0.0000000000000000e+00  7.5146883635197004e-01 -4.7657695894968259e-02 0.0000000000000000e+00  1.1380788240114688e+00 -1.1505107250789914e-06 0.0000000000000000e+00  1.1375899336827342e+00 -2.9983458654629464e-05 0.0000000000000000e+00  1.4304941204380734e+00 -6.7024157482942964e-02 0.0000000000000000e+00  1.1378203238763758e+00 -2.5047878269262952e-05 0.0000000000000000e+00  7.9387125780863022e-01 -6.0331906707547032e-02 0.0000000000000000e+00  1.0529695553696177e+00 1.1183500283782027e-04 0.0000000000000000e+00  9.1449898824041564e-01 4.4714016241217992e-02 0.0000000000000000e+00  9.4277035069045900e-01 9.6613816689844381e-02 0.0000000000000000e+00  6.9684371921862043e-01 3.0697106532865583e-02 0.0000000000000000e+00  1.4176735304994736e+00 1.8935410814461615e-01 0.0000000000000000e+00  1.1379895619073739e+00 1.2820730408184174e-04 0.0000000000000000e+00  1.1428688162901151e+00 -9.0479033262829569e-05 0.0000000000000000e+00  1.2252857724399768e+00 1.8392405093868561e-01 0.0000000000000000e+00  1.0801432086786029e+00 4.6456135740592490e-05 0.0000000000000000e+00  1.1269376133195841e+00 -1.5556769823115696e-04 0.0000000000000000e+00  1.1377509234803047e+00 -1.8679956834900431e-04 0.0000000000000000e+00  1.1379020528889683e+00 -2.0212900458427526e-04 0.0000000000000000e+00  1.4087171334030044e+00 1.8129628989342346e-02 0.0000000000000000e+00  1.1377894910847310e+00 6.9239652545138915e-05 0.0000000000000000e+00  1.1378446474615305e+00 4.1364264154963161e-06 0.0000000000000000e+00  1.1377439150410964e+00 -3.1098094305385928e-05 0.0000000000000000e+00  1.1371295647826583e+00 -7.7309075405165330e-04 0.0000000000000000e+00  9.7272049303411445e-01 -1.4914129602254303e-04 0.0000000000000000e+00  9.7242896124321543e-01 -3.3334836746097687e-04 0.0000000000000000e+00  1.0218004382573285e+00 -5.5542474884788279e-04 0.0000000000000000e+00  1.0583162078532682e+00 -2.2883370455983228e-04 0.0000000000000000e+00  1.0820012005152666e+00 2.4086430849443611e-04 0.0000000000000000e+00  1.1376259415883720e+00 -6.9755134634416299e-05 0.0000000000000000e+00  1.0074740608201986e+00 -6.8992284939599442e-05 0.0000000000000000e+00  1.1381002183593947e+00 2.1750632857535985e-05 0.0000000000000000e+00  1.1378110529999113e+00 -9.0975486091657959e-06 0.0000000000000000e+00  1.3380527418613375e+00 -9.4472985320709066e-02 0.0000000000000000e+00  1.1380129608064216e+00 -3.3398510617759265e-05 0.0000000000000000e+00  1.1379206676701425e+00 -4.5407658261816204e-05 0.0000000000000000e+00  1.1342993905498886e+00 -2.8209628346251528e-02 0.0000000000000000e+00  9.2287445703061310e-01 -1.7092410489625748e-04 0.0000000000000000e+00  1.1345003208655147e+00 -2.0270366871828413e-04 0.0000000000000000e+00  1.4859110884665323e+00 -4.4860616765069211e-01 0.0000000000000000e+00  1.0434593749560264e+00 2.3287444800175819e-04 0.0000000000000000e+00  7.3694863953364631e-01 -7.6337344339980337e-02 0.0000000000000000e+00  1.4514505131172790e+00 -5.9599464380644736e-02 0.0000000000000000e+00  1.0366621515191221e+00 9.4804171845849598e-04 0.0000000000000000e+00  9.6552790137115196e-01 4.1004984491235830e-05 0.0000000000000000e+00  1.5429750243014295e+00 4.7946330699148626e-01 0.0000000000000000e+00  1.0125445892945846e+00 1.8257692543658879e-01 0.0000000000000000e+00  1.0208701877217605e+00 1.5453602619539783e-04 0.0000000000000000e+00  1.9264216193158710e+00 2.4983717461277219e-01 0.0000000000000000e+00  1.4492070680730056e+00 -5.0530657804196710e-01 0.0000000000000000e+00  9.7102220687880814e-01 -1.8921674649059739e-01 0.0000000000000000e+00  1.0138373977434632e+00 -2.6494901310886200e-03 0.0000000000000000e+00  8.3309510817954302e-01 -1.0670120320590576e-01 0.0000000000000000e+00  1.0025033248952484e+00 9.1974119202187587e-05 0.0000000000000000e+00  1.0377477773042458e+00 2.4694821098341549e-05 0.0000000000000000e+00  1.1374945074765261e+00 -7.4976294507869164e-05 0.0000000000000000e+00  3.5623751947402349e-01 4.6367494773633770e-03 0.0000000000000000e+00  1.4062434536368553e+00 -1.3301136713535701e-06 0.0000000000000000e+00  1.1380259556126462e+00 2.7976446263789941e-05 0.0000000000000000e+00  1.0218339793815208e+00 -7.0214332364455475e-04 0.0000000000000000e+00  1.4062431343400195e+00 -1.1064971359997731e-06 0.0000000000000000e+00  1.0216212300426741e+00 -3.4111468295871007e-05 0.0000000000000000e+00  1.1372058181498921e+00 -2.1406735743927340e-03 0.0000000000000000e+00  1.1507900336661090e+00 5.9021576802643055e-02 0.0000000000000000e+00  1.1378214622863683e+00 -1.5126201811635122e-05 0.0000000000000000e+00  7.1794173806439165e-01 1.0108933367009995e-01 0.0000000000000000e+00  1.1378990535131843e+00 -1.0780886623740040e-05 0.0000000000000000e+00  1.0037384489888235e+00 -2.0391344389791423e-04 0.0000000000000000e+00  9.7928276364752720e-01 9.1865536324618989e-03 0.0000000000000000e+00  8.7209910030144233e-01 9.3881696299528579e-05 0.0000000000000000e+00  1.1372460678943119e+00 3.4061708827622931e-05 0.0000000000000000e+00  8.7278131309318263e-01 5.5584253080505142e-05 0.0000000000000000e+00  9.7088894