<?xml version="1.0"?>
<VTKFile type="UnstructuredGrid"  version="0.1"  >
<UnstructuredGrid>
<Piece  NumberOfPoints="2446" NumberOfCells="4585">
<Points>
<DataArray  type="Float64"  NumberOfComponents="3"  format="ascii">0 0.41 0  0 0 0  2.2 0 0  2.2 0.41 0  0.2404508497187474 0.2293892626146237 0  0.25 0.2 0  0.2404508497187474 0.1706107373853764 0  0.2154508497187474 0.1524471741852423 0  0.1845491502812526 0.1524471741852423 0  0.1595491502812526 0.1706107373853764 0  0.15 0.2 0  0.1595491502812526 0.2293892626146237 0  0.1845491502812527 0.2475528258147577 0  0.2154508497187474 0.2475528258147577 0  1.1 0 0  1.1 0.41 0  0 0.205 0  0.55 0 0  0.55 0.41 0  0.275 0 0  0.275 0.41 0  1.65 0.41 0  1.65 0 0  0.8250000000000001 0.41 0  0.8250000000000001 0 0  1.375 0 0  1.375 0.41 0  1.925 0 0  1.925 0.41 0  1.5125 0.205 0  1.7875 0.205 0  0.6875 0.205 0  0.9625000000000001 0.205 0  1.2375 0.205 0  2.2 0.205 0  0.4687002074688797 0.2068568464730291 0  1.99375 0.2152743902439024 0  2.0625 0 0  2.0625 0.41 0  2.2 0.3075 0  0.4125 0 0  0.4125 0.41 0  1.7875 0.41 0  1.375 0.1486128048780488 0  1.5125 0 0  1.7875 0 0  1.5125 0.41 0  0.8250000000000001 0.2613871951219511 0  0.9625000000000001 0.41 0  0.9625000000000001 0 0  0.6875 0.41 0  0.6875 0 0  0.1375 0 0  0.1375 0.41 0  1.2375 0 0  1.1 0.1486128048780487 0  1.2375 0.41 0  1.65 0.1486128048780487 0  1.126715909090909 0.2793064024390244 0  1.676715909090909 0.2793064024390244 0  0.8517159090909092 0.1306935975609756 0  1.348284090909091 0.2793064024390244 0  0.34375 0.3032389320646208 0  1.894702181800738 0.1282910975492754 0  2.092797818199262 0.1282910975492754 0  1.85625 0.3075 0  0.61875 0.3075 0  0.61875 0.1025 0  0.3648540804333487 0.1240075933101478 0  0 0.3075 0  0 0.1025 0  2.099172119769978 0.25625 0  0.48125 0.09238439620688085 0  0.5781001037344399 0.2059284232365146 0  0.48125 0.3196743479159776 0  0.7265881057911006 0.3055240343720796 0  1.99375 0.08395950269330846 0  1.459960956013612 0.3075 0  1.569025960719943 0.2986889805672169 0  0.75625 0.08213100772579164 0  1.03125 0.3278689922742084 0  0.923871252904788 0.3078247185783941 0  1.959375 0.3126371951219512 0  1.749222215368287 0.1025 0  1.275777784631713 0.1025 0  2.2 0.1025 0  1.225938124459196 0.3075 0  1.550777784631713 0.1025 0  1.000777784631713 0.1025 0  1.44375 0.07430640243902442 0  1.16875 0.07430640243902437 0  1.899250267340833 0.2229966846119207 0  0.1020898364287272 0.3140258291809757 0  1.766482954545455 0.2934032012195123 0  0.3405058858996321 0.2119987970531874 0  0.7710785630958338 0.1710968191298857 0  1.046078563095834 0.2389031808701144 0  0.2 0.3400647632937836 0  1.421109702350723 0.2261157654379721 0  0.2800464974185557 0.08982544815605742 0  0.098916018031319 0.09171660955420841 0  2.13125 0 0  2.118919042110979 0.3422084711244843 0  1.30625 0.41 0  0.89375 0 0  1.597888256393107 0.2173787389261347 0  0.20625 0 0  1.829299675393195 0.07400700849299596 0  1.71875 0.41 0  1.16875 0.41 0  2.038220665644273 0.332420740103091 0  0.34375 0 0  0.417496017710808 0.2696595573092803 0  0.2 0.07687845740457822 0  0.9295982307099278 0.1343158415898188 0  0.07390688010811153 0.1697064032433452 0  0.5238366813727013 0.2578302467013575 0  0.05452951551825875 0.25625 0  0.5229630068078351 0.1548816096928243 0  1.452769549894695 0.1548122580621249 0  1.369219062229598 0.07430640243902442 0  1.30625 0 0  0.8504409521244898 0.3356935975609756 0  0.8821881244591965 0.205 0  1.720943423819132 0.1714577452753128 0  1.157188124459196 0.205 0  1.094219062229598 0.07430640243902437 0  1.03125 0 0  1.304056576180868 0.1714577452753128 0  1.67579304192913 0.07430640243902437 0  0.2751941921308361 0.3346083473122598 0  1.209670467133757 0.1362100266964769 0  1.025335513626278 0.1700681449722324 0  0.7562500000000001 0.41 0  1.58125 0 0  0.7567170593862014 0.2409196493502535 0  0.6926714215682891 0.1272249611432207 0  0.4139715849905988 0.3397932387114203 0  0.9840787304190477 0.2717749043358119 0  0.06875000000000001 0.41 0  0 0.35875 0  0.9281250000000001 0.06276726142697993 0  0.5507396469029935 0.3219409231578227 0  0.5504468037989405 0.09136885600634273 0  1.58125 0.41 0  1.631724228912893 0.3381867502687533 0  1.825608881788174 0.14499488549201 0  1.85625 0 0  1.44375 0 0  1.44375 0.41 0  1.85625 0.41 0  2.13125 0.41 0  0.7562500000000001 0 0  0.89375 0.41 0  0.4812500000000001 0 0  0.34375 0.41 0  0.4812500000000001 0.41 0  0.20625 0.41 0  0.06875000000000001 0 0  1.16875 0 0  0.61875 0 0  0.61875 0.41 0  1.03125 0.41 0  1.71875 0 0  1.99375 0 0  1.99375 0.41 0  1.340625 0.3489494290853124 0  1.134375 0.3489494290853123 0  1.700180620188976 0.3438659752031281 0  2.135782184673599 0.07126652247502523 0  1.668441847249787 0.2129203728327609 0  1.295782514339747 0.2378437748815763 0  0.8233075729931248 0.06842334294821524 0  1.409375 0.3520314716057996 0  0.403505597322782 0.182067236678212 0  0.378125 0.05794951541303489 0  0.3043468223249023 0.1518321115979534 0  2.129248544730567 0.1906135162504124 0  2.060771381434487 0.1989445750470348 0  2.013252586573865 0.1496169464686054 0  1.942766402200229 0.1734448904596831 0  1.895522487186454 0.06076163953489683 0  2.069553871656643 0.06605731020975725 0  1.274680914880868 0.3520219391081363 0  1.614713220494657 0.09473434380863296 0  0.7899021319497519 0.3149123934144827 0  0.69518737419149 0.0634051089053758 0  0.2971740475496061 0.2592172353407536 0  1.72990325744076 0.2380068107952482 0  1.356580098625191 0.2120393231351682 0  2.034370752044885 0.2668681600792073 0  1.51768709249349 0.3426260931494756 0  1.561883724969884 0.1650446847858835 0  1.197344062229598 0.2523725417393646 0  1.804085235518364 0.3468178408964637 0  1.817887819205233 0.2589243285818559 0  1.905897727272727 0.3485060975609756 0  0.6719798073392919 0.2688965171178177 0  0 0.05125 0  0.653125 0.35875 0  0.6396896119294488 0.1627615407790282 0  0.4274150154087412 0.1242548552168279 0  1.192836486056382 0.3562350748565544 0  0.8279124365364005 0.183856489168822 0  1.097485222388854 0.2083571153401724 0  1.28257088594801 0.2944411014911587 0  1.474860187679412 0.2504218616229368 0  1.406767003493824 0.2829282258560709 0  0.446875 0.04619219810344041 0  0.515625 0.04585361801037557 0  0.592043440706648 0.05125 0  1.845656689180403 0.1998310418452388 0  2.144958525570388 0.2909790873294231 0  0.6171090763650112 0.2492366900333857 0  2.2 0.15375 0  0.5145586920831158 0.3648371739579888 0  1.57794966442982 0.3540357145964566 0  0.721875 0.3633107922168974 0  0.0496154796471391 0.333125 0  0.5843750000000001 0.3662560860076676 0  0.5810878747760798 0.1474002776121195 0  1.508991196088596 0.1421783375065625 0  0.8840670607017558 0.2640994375393898 0  0.09776612425612034 0.2204896805326566 0  1.50436820029908 0.06143401634903343 0  1.223857000523521 0.0823554862453532 0  1.153316824384777 0.1289850171317837 0  2.148922302309752 0.1258841779285271 0  0.309375 0.04312325590431198 0  1.621993280276081 0.2841214267927899 0  1.550118654119087 0.2461998729100966 0  1.327182649291491 0.1216967252533594 0  1.051977450479407 0.1221382572915816 0  1.753125 0.04556020050186112 0  1.271875 0.04556020050186116 0  0.9816084133102366 0.05126138213476004 0  1.039051841454368 0.0572224914831029 0  0.9719230514536006 0.3480477870845102 0  1.94956388244759 0.1180512551534177 0  1.949997712993411 0.04965831614304109 0  1.771961817615021 0.1530278789497521 0  1.909246823951428 0.2812757146784527 0  0.2459536687882397 0.04668633953831142 0  1.948575539857022 0.2445328248721197 0  1.697271520964565 0.1233917627620729 0  0.7964897648514618 0.1211426571931604 0  1.065625 0.3689344961371042 0  1.085849084308977 0.3170853572226867 0  0.4702981435440001 0.260434880697798 0  1.577403511714593 0.05463601888079143 0  0.05622663515370135 0.05493816910862376 0  0.3267207591099919 0.3566194660323104 0  0.9003051618565143 0.3564049499960621 0  1.751571320346033 0.3651102912045228 0  0.1583785085108421 0.2994699345738728 0  0.1455283439499995 0.3542795598723423 0  2.2 0.35875 0  0.2347662494194072 0.298325008655211 0  0.1527284455616188 0.1065771775690181 0  0.1382139529076665 0.05427454456341477 0  0.8749341636311069 0.05110114999892954 0  0.643661668713109 0.05693499781019222 0  1.466879772203159 0.3611261772912453 0  1.990280163552011 0.3564754268533217 0  1.17471064520912 0.2990917256188288 0  0.5202693090594349 0.206382495511728 0  0 0.25625 0  2.2 0.25625 0  2.2 0.05125 0  0 0.15375 0  1.853978576207987 0.35875 0  0.9787513713939683 0.1487523696999336 0  0.240625 0.3722153812029779 0  1.515638456102889 0.2882700110184686 0  0.09048297387599738 0.3637717362208066 0  2.150453692751374 0.2387066338105111 0  1.323782677156475 0.04897634338873398 0  0.8074131292871642 0.3624701995505916 0  1.409375 0.03715320121951221 0  1.406484531114799 0.1087852750766809 0  1.134375 0.03715320121951218 0  1.627401732573545 0.04552157221025036 0  0.1170173172005315 0.1427610859166811 0  2.045405893604797 0.1105340662939892 0  1.255408269734577 0.1577307500159216 0  2.028125 0.03707597992059326 0  0.4743610090857199 0.1421513964721819 0  0.9354010469015898 0.250631300585664 0  0.04420832937638274 0.128125 0  0.8922386349349938 0.0992956419364831 0  0.1197849154434487 0.2663398672460083 0  1.248258025468107 0.2565907092181813 0  0.3746885856929528 0.370723531618974 0  1.203125 0.0366132337404304 0  0.5724622277005015 0.2751253816079333 0  0.3365425205162783 0.08395777655057959 0  2.072662025974815 0.2975086504196739 0  0.4581080832182547 0.3648371739579888 0  0.3874522734668214 0.2295447548840689 0  0.7827853612484443 0.04106550386289586 0  1.887722846421017 0.1760882698830035 0  1.472640588990488 0.1118278026240017 0  1.865937103925594 0.2604137786483804 0  1.463913572748262 0.2030442564990043 0  1.376426316059077 0.3186741374914345 0  0.6641993820150034 0.3141688596240831 0  0.2943117490824315 0.2130987422685822 0  0.3478153998082709 0.1666571081082676 0  0.3427990510599805 0.2575950027870776 0  0.7997118993855807 0.2216171933356366 0  
[...]
<PointData  Vectors="f_31"> 
<DataArray  type="Float64"  Name="f_31"  NumberOfComponents="3" format="ascii">1.0054599871269143e-05 1.5324964951888966e-05 0.0000000000000000e+00  1.6024585566199768e-05 -2.7911569530974042e-05 0.0000000000000000e+00  1.3162287259166744e-07 1.2999549290875185e-06 0.0000000000000000e+00  -2.0673483962904430e-05 2.2200578687254454e-06 0.0000000000000000e+00  1.4839854353730942e-04 -3.8827730625572859e-05 0.0000000000000000e+00  1.2832246016705431e-04 1.1846829651570363e-05 0.0000000000000000e+00  1.2997312311854213e-04 2.2184096594481545e-05 0.0000000000000000e+00  3.6575765296132734e-05 -5.9803135633288336e-05 0.0000000000000000e+00  -3.4420668501875003e-05 -1.5357693364465996e-05 0.0000000000000000e+00  8.8659578100151713e-05 -7.0515761664203616e-05 0.0000000000000000e+00  -4.7620006876945947e-05 1.7418875786864214e-05 0.0000000000000000e+00  8.4582022074073076e-05 7.8230004912683692e-05 0.0000000000000000e+00  8.8388258453620588e-06 1.7843663714603512e-05 0.0000000000000000e+00  2.6455161865754622e-05 2.7463364687455017e-05 0.0000000000000000e+00  -3.9897441764778107e-06 -1.0607271018389578e-06 0.0000000000000000e+00  3.7653710800231838e-07 9.0001437715688333e-07 0.0000000000000000e+00  1.5000050039746209e+00 8.4927625785358752e-07 0.0000000000000000e+00  -1.0884051068022376e-05 1.6432323130720114e-06 0.0000000000000000e+00  7.5176437374649241e-06 1.0108633392469726e-06 0.0000000000000000e+00  1.0606285110635811e-05 4.3061108877946325e-06 0.0000000000000000e+00  3.2081501699488641e-06 -9.9854742981883061e-07 0.0000000000000000e+00  -2.7855932499700785e-06 -7.8061731368011135e-07 0.0000000000000000e+00  -2.7365736974509366e-06 1.1389675048224405e-06 0.0000000000000000e+00  -3.3962188857003696e-06 -7.1670488803737078e-07 0.0000000000000000e+00  -7.3616026005011547e-06 2.2677755792350819e-06 0.0000000000000000e+00  -7.6030269476113396e-06 -1.0652909467798387e-08 0.0000000000000000e+00  -3.1395643683936237e-06 -4.2491857194932471e-06 0.0000000000000000e+00  -2.5285521657686882e-06 -1.8406123997551915e-06 0.0000000000000000e+00  -9.4584679979414424e-06 -1.5654967717222882e-06 0.0000000000000000e+00  1.0492178180836105e+00 -5.8696099951809049e-07 0.0000000000000000e+00  1.0491743675310474e+00 -3.0477110806856088e-05 0.0000000000000000e+00  1.0485323757027323e+00 -5.9711828072309635e-04 0.0000000000000000e+00  1.0490952161892537e+00 -8.3806023852588487e-05 0.0000000000000000e+00  1.0491452585580892e+00 4.0264680379521121e-05 0.0000000000000000e+00  1.0504252147037141e+00 3.8621771797942920e-05 0.0000000000000000e+00  1.0298104340618819e+00 -4.5020402770959136e-03 0.0000000000000000e+00  1.0492310083014365e+00 5.0151948758339356e-05 0.0000000000000000e+00  -2.7702578822602397e-08 -8.9448263827023050e-07 0.0000000000000000e+00  -1.8497783095213738e-06 -4.7440701847131259e-07 0.0000000000000000e+00  1.0505296127589099e+00 -1.5590181586196043e-03 0.0000000000000000e+00  5.1760415157031941e-07 -1.0558986690930331e-06 0.0000000000000000e+00  -4.4880326114347946e-08 5.6218136773381890e-07 0.0000000000000000e+00  -8.8173892522517357e-06 -2.3712247232017577e-07 0.0000000000000000e+00  1.0491440077990242e+00 4.5937626098613077e-05 0.0000000000000000e+00  -5.5781395078049594e-06 2.0088487912641737e-06 0.0000000000000000e+00  -7.3594540158644871e-06 1.6376011165084054e-07 0.0000000000000000e+00  4.9184056152596782e-07 -9.7808186341313414e-07 0.0000000000000000e+00  1.0491626032260770e+00 -2.1609634651491554e-04 0.0000000000000000e+00  -3.2697695934648294e-06 8.7175908963780352e-07 0.0000000000000000e+00  2.2101403009392972e-06 1.8502560758551519e-07 0.0000000000000000e+00  3.8323495864556222e-06 -1.0203016497790852e-06 0.0000000000000000e+00  -8.2248585831104794e-06 -2.7762510572596899e-06 0.0000000000000000e+00  -3.0249027150111316e-05 3.1717544201274659e-06 0.0000000000000000e+00  -3.0582430610895709e-05 4.8909658592758017e-07 0.0000000000000000e+00  -2.1165284564528914e-07 1.1843493082461838e-07 0.0000000000000000e+00  1.0490111220566118e+00 -4.1002781988538042e-05 0.0000000000000000e+00  -8.5011737464645411e-07 -2.5900653021439680e-07 0.0000000000000000e+00  1.0492359603343884e+00 -2.0889028195434864e-05 0.0000000000000000e+00  1.0490022725073977e+00 -6.8282239886049550e-05 0.0000000000000000e+00  1.0492544582324974e+00 1.0810714529109550e-06 0.0000000000000000e+00  1.0491280673093577e+00 -1.2515530067953417e-04 0.0000000000000000e+00  1.0491894011979823e+00 1.7548925909268771e-04 0.0000000000000000e+00  1.1040171913494727e+00 -1.3120815990521870e-01 0.0000000000000000e+00  1.0490603649708421e+00 1.2605494514621452e-05 0.0000000000000000e+00  1.0493045145976698e+00 4.8126195621624846e-04 0.0000000000000000e+00  1.0491259884550490e+00 2.1819386118505647e-05 0.0000000000000000e+00  1.0499227629556223e+00 -2.1017794635229329e-03 0.0000000000000000e+00  1.0484412541143922e+00 8.5524214110034894e-04 0.0000000000000000e+00  1.0356615984201778e+00 1.0452727446519422e-01 0.0000000000000000e+00  1.1249990876818263e+00 -4.4430303790779404e-07 0.0000000000000000e+00  1.1249872599731323e+00 2.4118422967889985e-06 0.0000000000000000e+00  1.0492897221257431e+00 -1.8096881727399194e-04 0.0000000000000000e+00  1.0512457990695214e+00 1.2771781226818135e-02 0.0000000000000000e+00  1.0459751234227004e+00 -1.4863293306032325e-03 0.0000000000000000e+00  1.0565942959916770e+00 -1.5876072376536862e-02 0.0000000000000000e+00  1.0494672273245100e+00 -6.4558897918092254e-04 0.0000000000000000e+00  1.0493079441839110e+00 1.9907181641553822e-04 0.0000000000000000e+00  1.0488981803247517e+00 2.6083743389174173e-05 0.0000000000000000e+00  1.0489199119260086e+00 6.0193232319033134e-06 0.0000000000000000e+00  1.0485815906359754e+00 -2.6335299519031547e-04 0.0000000000000000e+00  1.0481935523790105e+00 -2.1615106786346291e-05 0.0000000000000000e+00  1.0493569603291371e+00 -6.0424540419198774e-05 0.0000000000000000e+00  1.0493842157167488e+00 -2.1428685969845934e-04 0.0000000000000000e+00  1.0489461540912168e+00 -2.9358562414256111e-04 0.0000000000000000e+00  1.0493929146273155e+00 1.6805474666519894e-04 0.0000000000000000e+00  1.0507200376182719e+00 1.6986245448223831e-03 0.0000000000000000e+00  1.0494731274286304e+00 -9.3425122906816188e-05 0.0000000000000000e+00  1.0490707559570671e+00 -1.5605597446827573e-04 0.0000000000000000e+00  1.0490862319208545e+00 -1.3128829222284745e-04 0.0000000000000000e+00  1.0490460959163681e+00 2.7085321857429320e-04 0.0000000000000000e+00  1.0484988459045681e+00 -8.9172892248216032e-05 0.0000000000000000e+00  1.0490926408635493e+00 -1.4810463452068310e-05 0.0000000000000000e+00  1.0390052838107382e+00 5.8891847181387225e-01 0.0000000000000000e+00  1.0490174974316520e+00 -5.7043860987013909e-06 0.0000000000000000e+00  8.4666646553848646e-01 -5.9368487986971509e-02 0.0000000000000000e+00  1.0489159328913742e+00 -1.7019997106549394e-04 0.0000000000000000e+00  1.0491315088762110e+00 -3.8256521324029038e-05 0.0000000000000000e+00  1.3238388996308803e+00 1.0926580835748101e-01 0.0000000000000000e+00  1.0491597016854819e+00 8.9629995000167306e-05 0.0000000000000000e+00  1.2787187809889489e+00 1.8046268117884465e-01 0.0000000000000000e+00  1.0074777331493283e+00 -5.9477580031144262e-01 0.0000000000000000e+00  1.3711914648340531e-06 -9.3820439494653309e-07 0.0000000000000000e+00  1.0475638602755535e+00 -5.1030612215559985e-04 0.0000000000000000e+00  -1.6092926846519233e-06 -8.5674072123378650e-07 0.0000000000000000e+00  -1.2364647637764386e-05 -3.2053497942414479e-07 0.0000000000000000e+00  1.0491892140975991e+00 -3.3086360799287265e-05 0.0000000000000000e+00  8.4831440779242127e-06 5.6417567932732594e-07 0.0000000000000000e+00  1.0488063988459166e+00 -7.2796630585101536e-05 0.0000000000000000e+00  -9.6168040550565894e-06 5.2614152934964177e-07 0.0000000000000000e+00  2.8207601978957929e-07 -4.9101251810914944e-07 0.0000000000000000e+00  1.0487220165557589e+00 5.7756979713772128e-04 0.0000000000000000e+00  -6.1039768190841894e-06 -1.3321622317370053e-06 0.0000000000000000e+00  1.0343924159913687e+00 -4.5122399161010122e-02 0.0000000000000000e+00  1.3936869347689065e+00 -1.0688077821797275e-01 0.0000000000000000e+00  1.0490581390948599e+00 -1.2773454032002386e-04 0.0000000000000000e+00  1.3364195732457238e+00 -1.3269718705504044e-01 0.0000000000000000e+00  1.0452864369206620e+00 -7.9090738153286891e-03 0.0000000000000000e+00  1.3739862814566639e+00 1.2595647850564437e-01 0.0000000000000000e+00  1.0429156446435595e+00 3.6739025874777493e-03 0.0000000000000000e+00  1.0491184425543383e+00 5.1646262380261472e-05 0.0000000000000000e+00  1.0481575750102559e+00 -1.1588293392190128e-03 0.0000000000000000e+00  -3.0999792619577901e-06 1.8024065080132230e-06 0.0000000000000000e+00  1.0488693323195699e+00 -1.7395285648274329e-04 0.0000000000000000e+00  1.0491835666291862e+00 -1.1288126616120556e-04 0.0000000000000000e+00  1.0490913959501755e+00 1.6931769087169151e-05 0.0000000000000000e+00  1.0490284228934239e+00 1.4762243876327241e-05 0.0000000000000000e+00  1.0490716503291257e+00 -3.2451131714355695e-04 0.0000000000000000e+00  -5.1331081106362268e-06 -1.2969323278264486e-06 0.0000000000000000e+00  1.0492130787789393e+00 9.8303472117956055e-05 0.0000000000000000e+00  1.0490234414615949e+00 -1.5078031466097720e-04 0.0000000000000000e+00  1.2834007647694357e+00 -9.8601883781700816e-02 0.0000000000000000e+00  1.0490947501841144e+00 1.3237567652694748e-04 0.0000000000000000e+00  1.0490849051261331e+00 -6.4660032118237765e-05 0.0000000000000000e+00  -1.8662603499630535e-06 -1.2039026462588335e-06 0.0000000000000000e+00  -2.0801903429199505e-05 3.0785557438544196e-07 0.0000000000000000e+00  1.0491414772103669e+00 -4.5520809563575346e-04 0.0000000000000000e+00  1.0486827542898409e+00 -3.2371914239640663e-05 0.0000000000000000e+00  1.0815709887313087e+00 -3.2910942569757302e-02 0.0000000000000000e+00  1.0491652093058323e+00 -4.0394226284153978e-05 0.0000000000000000e+00  -1.5453665312160601e-05 -2.4014942555993000e-05 0.0000000000000000e+00  6.5625157342128460e-01 2.1391241136852679e-05 0.0000000000000000e+00  1.0482924501524373e+00 -4.3067896238008501e-04 0.0000000000000000e+00  1.0523855129263666e+00 -5.5897534067402398e-03 0.0000000000000000e+00  1.0491100212634825e+00 3.4714650338651619e-03 0.0000000000000000e+00  -1.4120834998880180e-05 2.9033468111741681e-08 0.0000000000000000e+00  1.0482931737102636e+00 -3.2873060503426401e-05 0.0000000000000000e+00  1.0490344161726641e+00 -7.9932249382340590e-05 0.0000000000000000e+00  -5.6916791857969947e-06 -1.0643317154794580e-06 0.0000000000000000e+00  -1.4064659971154013e-05 1.2354118044580935e-06 0.0000000000000000e+00  -6.3913616134208889e-06 1.7036884555871139e-06 0.0000000000000000e+00  3.4765001052118594e-07 -8.6381349120393294e-07 0.0000000000000000e+00  -1.0095276296002188e-05 5.3286131253727497e-07 0.0000000000000000e+00  3.1475147050354782e-07 -1.1475605483412406e-06 0.0000000000000000e+00  -2.9537644010593672e-06 -2.1676144988016602e-07 0.0000000000000000e+00  5.9596137879541883e-06 1.0596875116467204e-07 0.0000000000000000e+00  3.4404477156520355e-06 -1.5126349657094039e-06 0.0000000000000000e+00  -1.1006157307503174e-05 8.1571494155050796e-07 0.0000000000000000e+00  5.4643867039384230e-06 -1.1109624794663751e-06 0.0000000000000000e+00  -3.7684639720660058e-05 1.6853563433762621e-05 0.0000000000000000e+00  -2.0843851218363150e-06 -4.5128481834117408e-07 0.0000000000000000e+00  -7.5484913524819082e-06 4.4757794969889235e-07 0.0000000000000000e+00  -2.7179431111542168e-06 1.7061033531897094e-06 0.0000000000000000e+00  -6.5358841482045983e-06 -9.1397139304474753e-07 0.0000000000000000e+00  -1.1460997400916038e-05 1.1398418208954747e-06 0.0000000000000000e+00  -7.5345908661731432e-07 -7.4219986765845420e-07 0.0000000000000000e+00  3.2789233001583188e-07 -5.4484715255176658e-07 0.0000000000000000e+00  1.0467526538540224e+00 1.8093629158518149e-03 0.0000000000000000e+00  1.0471200198722985e+00 3.0314925887629188e-04 0.0000000000000000e+00  1.0486473099304929e+00 1.0798475425726631e-03 0.0000000000000000e+00  1.0486433546048159e+00 1.4363440476267016e-03 0.0000000000000000e+00  1.0491513086772890e+00 1.7379476662507250e-05 0.0000000000000000e+00  1.0492154247814891e+00 8.9440525487394237e-05 0.0000000000000000e+00  1.0484253768091929e+00 -1.3059998804891784e-04 0.0000000000000000e+00  1.0464135629565823e+00 2.0853286917353851e-03 0.0000000000000000e+00  9.9163934260106157e-01 1.6526046104738328e-02 0.0000000000000000e+00  1.1028617419631390e+00 4.3460193820008229e-02 0.0000000000000000e+00  9.2956711264946601e-01 3.9347649530520507e-01 0.0000000000000000e+00  1.0496843796590536e+00 2.2127293950163226e-04 0.0000000000000000e+00  1.0493725760120445e+00 1.3517024624546794e-04 0.0000000000000000e+00  1.0492533735101175e+00 1.3891095620693921e-04 0.0000000000000000e+00  1.0491241593831782e+00 4.9758324064983582e-05 0.0000000000000000e+00  1.0479566052212710e+00 -2.6699035656993286e-04 0.0000000000000000e+00  1.0476786442062547e+00 -2.8589428549560629e-04 0.0000000000000000e+00  1.0486398086262572e+00 1.0854380608048629e-03 0.0000000000000000e+00  1.0489739224356363e+00 7.5417684158763428e-05 0.0000000000000000e+00  1.0493540176276979e+00 -1.1539278984649985e-04 0.0000000000000000e+00  1.0480863712606381e+00 -5.5333988615676160e-04 0.0000000000000000e+00  1.0165143320435037e+00 -4.3788022782115904e-01 0.0000000000000000e+00  1.0491758734921588e+00 -1.8206940896328906e-05 0.0000000000000000e+00  1.0491815195315908e+00 7.8213345128028483e-05 0.0000000000000000e+00  1.0492230241067086e+00 8.7827240174202383e-05 0.0000000000000000e+00  1.0493002807305836e+00 -2.6113257769142862e-04 0.0000000000000000e+00  1.0491847919241959e+00 -4.3258768797553083e-05 0.0000000000000000e+00  1.0492137478016486e+00 -4.9586262879925940e-05 0.0000000000000000e+00  1.0486544914062963e+00 -4.4614437170669829e-04 0.0000000000000000e+00  1.0491389201002861e+00 -3.1501297161681040e-05 0.0000000000000000e+00  1.0478290737129696e+00 2.3288848405889545e-04 0.0000000000000000e+00  1.0490684244786597e+00 -1.1955448460031193e-03 0.0000000000000000e+00  6.5624605552610593e-01 -2.4531133897135627e-05 0.0000000000000000e+00  1.0459796845827740e+00 -2.5667856165316081e-04 0.0000000000000000e+00  1.0479981458858840e+00 -7.3339380471805791e-05 0.0000000000000000e+00  1.0381461560064340e+00 3.3779733569176455e-02 0.0000000000000000e+00  1.0493203813459984e+00 -5.1023431856894632e-04 0.0000000000000000e+00  1.0490127582470776e+00 -1.2878464468745067e-04 0.0000000000000000e+00  1.0490285914458315e+00 -4.6239714570413097e-05 0.0000000000000000e+00  1.0494090284861459e+00 1.1894721798597516e-04 0.0000000000000000e+00  1.0491128349073682e+00 3.7766945956766901e-05 0.0000000000000000e+00  1.0490382882737603e+00 8.7415086399822005e-05 0.0000000000000000e+00  1.0571242409703243e+00 1.1064189455309712e-02 0.0000000000000000e+00  1.0496993368676477e+00 1.6543436139360764e-03 0.0000000000000000e+00  1.0454544144561577e+00 4.2622825030855677e-04 0.0000000000000000e+00  1.0490909278518432e+00 -3.3181176251865878e-05 0.0000000000000000e+00  1.0494332233530574e+00 -8.3570842310026826e-04 0.0000000000000000e+00  1.0481985201185327e+00 -2.0369427771169523e-03 0.0000000000000000e+00  1.0503903388103839e+00 6.2852921366444384e-04 0.0000000000000000e+00  1.0545666887467275e+00 -5.3880859094079621e-03 0.0000000000000000e+00  1.0475307595037620e+00 1.4183622167826442e-04 0.0000000000000000e+00  1.0410276041835813e+00 2.6714703805844590e-04 0.0000000000000000e+00  9.6532718524141448e-01 6.3093555795817546e-02 0.0000000000000000e+00  1.0452631124253000e+00 9.9070046550091750e-04 0.0000000000000000e+00  1.0468560245742176e+00 1.1264646236777932e-03 0.0000000000000000e+00  1.0491992413606603e+00 -6.9996823908460368e-06 0.0000000000000000e+00  1.0491249721903388e+00 -1.1455249084763977e-04 0.0000000000000000e+00  1.2099219616086874e+00 1.6957126222415694e-01 0.0000000000000000e+00  1.0499998754430209e+00 -4.5537628827411276e-04 0.0000000000000000e+00  1.0489692943488060e+00 3.4647392935298273e-04 0.0000000000000000e+00  1.0490853098515112e+00 4.7122960419113630e-05 0.0000000000000000e+00  1.0497210728043245e+00 8.7750669142615885e-04 0.0000000000000000e+00  1.2065713778489020e+00 5.3621014112107346e-02 0.0000000000000000e+00  1.0491191762610899e+00 -1.3073712158912307e-04 0.0000000000000000e+00  1.0490467029430524e+00 -1.2924351832773939e-05 0.0000000000000000e+00  1.0492842238225069e+00 3.8888338750083673e-05 0.0000000000000000e+00  1.0490062485535732e+00 -7.3748472584639539e-05 0.0000000000000000e+00  1.0429860419040518e+00 -1.3411131684392811e-03 0.0000000000000000e+00  1.0441247713281749e+00 -7.8241099658611006e-04 0.0000000000000000e+00  1.0487696988786406e+00 -2.2316588878371437e-04 0.0000000000000000e+00  1.0486795620767657e+00 -9.3492163476118702e-05 0.0000000000000000e+00  1.0482940821182796e+00 4.6915437934802511e-04 0.0000000000000000e+00  1.0491416605448638e+00 1.4043564534914788e-04 0.0000000000000000e+00  1.0405368327263298e+00 -4.4845702490532111e-04 0.0000000000000000e+00  1.0491065357317169e+00 -6.1502275288151427e-05 0.0000000000000000e+00  1.0491766594685903e+00 -1.1368285757697847e-04 0.0000000000000000e+00  1.3047161700101895e+00 3.3084323540676343e-02 0.0000000000000000e+00  1.0492215312972082e+00 -5.6394741496149701e-05 0.0000000000000000e+00  1.0493074424579114e+00 -8.4192326040313870e-05 0.0000000000000000e+00  1.0490215851587545e+00 5.6948420970770515e-05 0.0000000000000000e+00  1.0465304733244556e+00 -8.8981792267955667e-04 0.0000000000000000e+00  1.0491900630052848e+00 1.7418001792899630e-04 0.0000000000000000e+00  1.0400290178618012e+00 -1.8037876978501687e-02 0.0000000000000000e+00  1.0453796045264894e+00 -3.2980649738302765e-04 0.0000000000000000e+00  6.9738664532613681e-01 -1.7719700455693060e-01 0.0000000000000000e+00  1.1797208926384493e+00 -6.3315909285426256e-02 0.0000000000000000e+00  1.0467296287635872e+00 -5.3964995279292881e-05 0.0000000000000000e+00  1.0390028515913494e+00 6.3216125554525716e-04 0.0000000000000000e+00  1.3383737034134848e+00 4.2588713297117170e-01 0.0000000000000000e+00  1.0974984731563047e+00 2.1720857916442443e-01 0.0000000000000000e+00  1.0469664340443043e+00 -3.2249687547870028e-03 0.0000000000000000e+00  1.5143180659178554e+00 -9.8238709840092336e-02 0.0000000000000000e+00  1.3103967060459023e+00 -4.8427808487200658e-01 0.0000000000000000e+00  1.0739403645627101e+00 -2.3958524370135958e-01 0.0000000000000000e+00  1.0427631001729483e+00 -2.5409397641639906e-03 0.0000000000000000e+00  1.0471723656420304e+00 -2.8654510581230524e-04 0.0000000000000000e+00  1.0424426821988773e+00 6.2908540681242406e-04 0.0000000000000000e+00  1.0505468562618865e+00 6.0505928769227031e-04 0.0000000000000000e+00  1.0491163762986044e+00 -3.0822911762480956e-04 0.0000000000000000e+00  1.0410079801116581e+00 -2.6067139584725284e-03 0.0000000000000000e+00  1.4062448205759737e+00 -4.8349366335262254e-06 0.0000000000000000e+00  1.0504967856550018e+00 -4.3209697075848009e-04 0.0000000000000000e+00  1.0472555132439081e+00 4.0854985709950506e-03 0.0000000000000000e+00  1.4062456978628111e+00 4.7741805296585410e-06 0.0000000000000000e+00  1.0492605108786051e+00 4.7343241737416998e-04 0.0000000000000000e+00  1.0489996116031837e+00 -7.7344628933969625e-05 0.0000000000000000e+00  1.2738513680448131e+00 -1.0206844719465823e-02 0.0000000000000000e+00  1.0491320581418422e+00 3.9603052783800700e-05 0.0000000000000000e+00  7.2460081813110222e-01 3.1474352092763069e-01 0.0000000000000000e+00  1.0498305760770568e+00 -2.1815601555738245e-04 0.0000000000000000e+00  1.0477972453914035e+00 -8.1242244288097498e-04 0.0000000000000000e+00  1.0439856165262837e+00 2.2863041716602462e-03 0.0000000000000000e+00  1.0407717327330333e+00 2.5785112935098296e-03 0.0000000000000000e+00  1.0489843326390720e+00 -9.8037501043805089e-05 0.0000000000000000e+00  1.0418226481767690e+00 1.0231588144336834e-03 0.0000000000000000e+00  1.0438355370314172e+