<?xml version="1.0"?>
<VTKFile type="UnstructuredGrid"  version="0.1"  >
<UnstructuredGrid>
<Piece  NumberOfPoints="2446" NumberOfCells="4585">
<Points>
<DataArray  type="Float64"  NumberOfComponents="3"  format="ascii">0 0.41 0  0 0 0  2.2 0 0  2.2 0.41 0  0.2404508497187474 0.2293892626146237 0  0.25 0.2 0  0.2404508497187474 0.1706107373853764 0  0.2154508497187474 0.1524471741852423 0  0.1845491502812526 0.1524471741852423 0  0.1595491502812526 0.1706107373853764 0  0.15 0.2 0  0.1595491502812526 0.2293892626146237 0  0.1845491502812527 0.2475528258147577 0  0.2154508497187474 0.2475528258147577 0  1.1 0 0  1.1 0.41 0  0 0.205 0  0.55 0 0  0.55 0.41 0  0.275 0 0  0.275 0.41 0  1.65 0.41 0  1.65 0 0  0.8250000000000001 0.41 0  0.8250000000000001 0 0  1.375 0 0  1.375 0.41 0  1.925 0 0  1.925 0.41 0  1.5125 0.205 0  1.7875 0.205 0  0.6875 0.205 0  0.9625000000000001 0.205 0  1.2375 0.205 0  2.2 0.205 0  0.4687002074688797 0.2068568464730291 0  1.99375 0.2152743902439024 0  2.0625 0 0  2.0625 0.41 0  2.2 0.3075 0  0.4125 0 0  0.4125 0.41 0  1.7875 0.41 0  1.375 0.1486128048780488 0  1.5125 0 0  1.7875 0 0  1.5125 0.41 0  0.8250000000000001 0.2613871951219511 0  0.9625000000000001 0.41 0  0.9625000000000001 0 0  0.6875 0.41 0  0.6875 0 0  0.1375 0 0  0.1375 0.41 0  1.2375 0 0  1.1 0.1486128048780487 0  1.2375 0.41 0  1.65 0.1486128048780487 0  1.126715909090909 0.2793064024390244 0  1.676715909090909 0.2793064024390244 0  0.8517159090909092 0.1306935975609756 0  1.348284090909091 0.2793064024390244 0  0.34375 0.3032389320646208 0  1.894702181800738 0.1282910975492754 0  2.092797818199262 0.1282910975492754 0  1.85625 0.3075 0  0.61875 0.3075 0  0.61875 0.1025 0  0.3648540804333487 0.1240075933101478 0  0 0.3075 0  0 0.1025 0  2.099172119769978 0.25625 0  0.48125 0.09238439620688085 0  0.5781001037344399 0.2059284232365146 0  0.48125 0.3196743479159776 0  0.7265881057911006 0.3055240343720796 0  1.99375 0.08395950269330846 0  1.459960956013612 0.3075 0  1.569025960719943 0.2986889805672169 0  0.75625 0.08213100772579164 0  1.03125 0.3278689922742084 0  0.923871252904788 0.3078247185783941 0  1.959375 0.3126371951219512 0  1.749222215368287 0.1025 0  1.275777784631713 0.1025 0  2.2 0.1025 0  1.225938124459196 0.3075 0  1.550777784631713 0.1025 0  1.000777784631713 0.1025 0  1.44375 0.07430640243902442 0  1.16875 0.07430640243902437 0  1.899250267340833 0.2229966846119207 0  0.1020898364287272 0.3140258291809757 0  1.766482954545455 0.2934032012195123 0  0.3405058858996321 0.2119987970531874 0  0.7710785630958338 0.1710968191298857 0  1.046078563095834 0.2389031808701144 0  0.2 0.3400647632937836 0  1.421109702350723 0.2261157654379721 0  0.2800464974185557 0.08982544815605742 0  0.098916018031319 0.09171660955420841 0  2.13125 0 0  2.118919042110979 0.3422084711244843 0  1.30625 0.41 0  0.89375 0 0  1.597888256393107 0.2173787389261347 0  0.20625 0 0  1.829299675393195 0.07400700849299596 0  1.71875 0.41 0  1.16875 0.41 0  2.038220665644273 0.332420740103091 0  0.34375 0 0  0.417496017710808 0.2696595573092803 0  0.2 0.07687845740457822 0  0.9295982307099278 0.1343158415898188 0  0.07390688010811153 0.1697064032433452 0  0.5238366813727013 0.2578302467013575 0  0.05452951551825875 0.25625 0  0.5229630068078351 0.1548816096928243 0  1.452769549894695 0.1548122580621249 0  1.369219062229598 0.07430640243902442 0  1.30625 0 0  0.8504409521244898 0.3356935975609756 0  0.8821881244591965 0.205 0  1.720943423819132 0.1714577452753128 0  1.157188124459196 0.205 0  1.094219062229598 0.07430640243902437 0  1.03125 0 0  1.304056576180868 0.1714577452753128 0  1.67579304192913 0.07430640243902437 0  0.2751941921308361 0.3346083473122598 0  1.209670467133757 0.1362100266964769 0  1.025335513626278 0.1700681449722324 0  0.7562500000000001 0.41 0  1.58125 0 0  0.7567170593862014 0.2409196493502535 0  0.6926714215682891 0.1272249611432207 0  0.4139715849905988 0.3397932387114203 0  0.9840787304190477 0.2717749043358119 0  0.06875000000000001 0.41 0  0 0.35875 0  0.9281250000000001 0.06276726142697993 0  0.5507396469029935 0.3219409231578227 0  0.5504468037989405 0.09136885600634273 0  1.58125 0.41 0  1.631724228912893 0.3381867502687533 0  1.825608881788174 0.14499488549201 0  1.85625 0 0  1.44375 0 0  1.44375 0.41 0  1.85625 0.41 0  2.13125 0.41 0  0.7562500000000001 0 0  0.89375 0.41 0  0.4812500000000001 0 0  0.34375 0.41 0  0.4812500000000001 0.41 0  0.20625 0.41 0  0.06875000000000001 0 0  1.16875 0 0  0.61875 0 0  0.61875 0.41 0  1.03125 0.41 0  1.71875 0 0  1.99375 0 0  1.99375 0.41 0  1.340625 0.3489494290853124 0  1.134375 0.3489494290853123 0  1.700180620188976 0.3438659752031281 0  2.135782184673599 0.07126652247502523 0  1.668441847249787 0.2129203728327609 0  1.295782514339747 0.2378437748815763 0  0.8233075729931248 0.06842334294821524 0  1.409375 0.3520314716057996 0  0.403505597322782 0.182067236678212 0  0.378125 0.05794951541303489 0  0.3043468223249023 0.1518321115979534 0  2.129248544730567 0.1906135162504124 0  2.060771381434487 0.1989445750470348 0  2.013252586573865 0.1496169464686054 0  1.942766402200229 0.1734448904596831 0  1.895522487186454 0.06076163953489683 0  2.069553871656643 0.06605731020975725 0  1.274680914880868 0.3520219391081363 0  1.614713220494657 0.09473434380863296 0  0.7899021319497519 0.3149123934144827 0  0.69518737419149 0.0634051089053758 0  0.2971740475496061 0.2592172353407536 0  1.72990325744076 0.2380068107952482 0  1.356580098625191 0.2120393231351682 0  2.034370752044885 0.2668681600792073 0  1.51768709249349 0.3426260931494756 0  1.561883724969884 0.1650446847858835 0  1.197344062229598 0.2523725417393646 0  1.804085235518364 0.3468178408964637 0  1.817887819205233 0.2589243285818559 0  1.905897727272727 0.3485060975609756 0  0.6719798073392919 0.2688965171178177 0  0 0.05125 0  0.653125 0.35875 0  0.6396896119294488 0.1627615407790282 0  0.4274150154087412 0.1242548552168279 0  1.192836486056382 0.3562350748565544 0  0.8279124365364005 0.183856489168822 0  1.097485222388854 0.2083571153401724 0  1.28257088594801 0.2944411014911587 0  1.474860187679412 0.2504218616229368 0  1.406767003493824 0.2829282258560709 0  0.446875 0.04619219810344041 0  0.515625 0.04585361801037557 0  0.592043440706648 0.05125 0  1.845656689180403 0.1998310418452388 0  2.144958525570388 0.2909790873294231 0  0.6171090763650112 0.2492366900333857 0  2.2 0.15375 0  0.5145586920831158 0.3648371739579888 0  1.57794966442982 0.3540357145964566 0  0.721875 0.3633107922168974 0  0.0496154796471391 0.333125 0  0.5843750000000001 0.3662560860076676 0  0.5810878747760798 0.1474002776121195 0  1.508991196088596 0.1421783375065625 0  0.8840670607017558 0.2640994375393898 0  0.09776612425612034 0.2204896805326566 0  1.50436820029908 0.06143401634903343 0  1.223857000523521 0.0823554862453532 0  1.153316824384777 0.1289850171317837 0  2.148922302309752 0.1258841779285271 0  0.309375 0.04312325590431198 0  1.621993280276081 0.2841214267927899 0  1.550118654119087 0.2461998729100966 0  1.327182649291491 0.1216967252533594 0  1.051977450479407 0.1221382572915816 0  1.753125 0.04556020050186112 0  1.271875 0.04556020050186116 0  0.9816084133102366 0.05126138213476004 0  1.039051841454368 0.0572224914831029 0  0.9719230514536006 0.3480477870845102 0  1.94956388244759 0.1180512551534177 0  1.949997712993411 0.04965831614304109 0  1.771961817615021 0.1530278789497521 0  1.909246823951428 0.2812757146784527 0  0.2459536687882397 0.04668633953831142 0  1.948575539857022 0.2445328248721197 0  1.697271520964565 0.1233917627620729 0  0.7964897648514618 0.1211426571931604 0  1.065625 0.3689344961371042 0  1.085849084308977 0.3170853572226867 0  0.4702981435440001 0.260434880697798 0  1.577403511714593 0.05463601888079143 0  0.05622663515370135 0.05493816910862376 0  0.3267207591099919 0.3566194660323104 0  0.9003051618565143 0.3564049499960621 0  1.751571320346033 0.3651102912045228 0  0.1583785085108421 0.2994699345738728 0  0.1455283439499995 0.3542795598723423 0  2.2 0.35875 0  0.2347662494194072 0.298325008655211 0  0.1527284455616188 0.1065771775690181 0  0.1382139529076665 0.05427454456341477 0  0.8749341636311069 0.05110114999892954 0  0.643661668713109 0.05693499781019222 0  1.466879772203159 0.3611261772912453 0  1.990280163552011 0.3564754268533217 0  1.17471064520912 0.2990917256188288 0  0.5202693090594349 0.206382495511728 0  0 0.25625 0  2.2 0.25625 0  2.2 0.05125 0  0 0.15375 0  1.853978576207987 0.35875 0  0.9787513713939683 0.1487523696999336 0  0.240625 0.3722153812029779 0  1.515638456102889 0.2882700110184686 0  0.09048297387599738 0.3637717362208066 0  2.150453692751374 0.2387066338105111 0  1.323782677156475 0.04897634338873398 0  0.8074131292871642 0.3624701995505916 0  1.409375 0.03715320121951221 0  1.406484531114799 0.1087852750766809 0  1.134375 0.03715320121951218 0  1.627401732573545 0.04552157221025036 0  0.1170173172005315 0.1427610859166811 0  2.045405893604797 0.1105340662939892 0  1.255408269734577 0.1577307500159216 0  2.028125 0.03707597992059326 0  0.4743610090857199 0.1421513964721819 0  0.9354010469015898 0.250631300585664 0  0.04420832937638274 0.128125 0  0.8922386349349938 0.0992956419364831 0  0.1197849154434487 0.2663398672460083 0  1.248258025468107 0.2565907092181813 0  0.3746885856929528 0.370723531618974 0  1.203125 0.0366132337404304 0  0.5724622277005015 0.2751253816079333 0  0.3365425205162783 0.08395777655057959 0  2.072662025974815 0.2975086504196739 0  0.4581080832182547 0.3648371739579888 0  0.3874522734668214 0.2295447548840689 0  0.7827853612484443 0.04106550386289586 0  1.887722846421017 0.1760882698830035 0  1.472640588990488 0.1118278026240017 0  1.865937103925594 0.2604137786483804 0  1.463913572748262 0.2030442564990043 0  1.376426316059077 0.3186741374914345 0  0.6641993820150034 0.3141688596240831 0  0.2943117490824315 0.2130987422685822 0  0.3478153998082709 0.1666571081082676 0  0.3427990510599805 0.2575950027870776 0  0.7997118993855807 0.2216171933356366 0  
[...]
<PointData  Vectors="f_31"> 
<DataArray  type="Float64"  Name="f_31"  NumberOfComponents="3" format="ascii">2.2638511936392328e-06 5.3529790823681158e-08 0.0000000000000000e+00  -2.3141748942521071e-06 5.5725647869897062e-09 0.0000000000000000e+00  3.6780283831202604e-06 -2.6421656131983173e-09 0.0000000000000000e+00  -1.6038267046237904e-05 -1.1944401878747373e-08 0.0000000000000000e+00  -3.3543678972329098e-06 -8.5201537883771870e-07 0.0000000000000000e+00  7.6819533140911894e-07 -1.3223792932963727e-05 0.0000000000000000e+00  3.6364511724487701e-06 -4.9141003467684150e-06 0.0000000000000000e+00  -8.4896163180445388e-06 3.7618805367608897e-06 0.0000000000000000e+00  -3.4717953137980014e-06 5.6491486923300462e-06 0.0000000000000000e+00  1.0127261154521721e-05 -7.6397885048326274e-07 0.0000000000000000e+00  -2.8054880929948589e-07 -3.8775070888466145e-06 0.0000000000000000e+00  -1.6088536876303643e-05 -2.1772246314195170e-06 0.0000000000000000e+00  7.1023146148680263e-06 8.7795130366356472e-06 0.0000000000000000e+00  -1.0367452185967128e-05 -7.2169557711333868e-07 0.0000000000000000e+00  -2.3376645602117869e-06 1.0335489888167623e-08 0.0000000000000000e+00  1.8985514972376627e-07 -1.3614366113294906e-08 0.0000000000000000e+00  1.5000043927538484e+00 -1.9024504667469942e-06 0.0000000000000000e+00  -4.3697200720752138e-06 -2.9569352745350464e-06 0.0000000000000000e+00  9.4579530274667896e-06 5.4318125822576364e-07 0.0000000000000000e+00  4.4626206483832991e-06 3.2570930619388901e-07 0.0000000000000000e+00  -4.4672853238144304e-06 5.7129052693851047e-08 0.0000000000000000e+00  4.8112969106732447e-07 3.0615012315550186e-09 0.0000000000000000e+00  5.3569905055413103e-07 -7.7362728154760876e-09 0.0000000000000000e+00  -6.0096496450632145e-06 -4.4183055121369352e-07 0.0000000000000000e+00  -1.1693907747460856e-05 6.8777361431933799e-07 0.0000000000000000e+00  -3.6379147531967259e-06 2.1747135334683357e-09 0.0000000000000000e+00  -6.2164183980470666e-07 7.2121804144706099e-09 0.0000000000000000e+00  -2.7151759622894478e-06 8.6837607857544841e-09 0.0000000000000000e+00  -1.9783566373050933e-06 -1.6249886218904243e-09 0.0000000000000000e+00  1.1518882795691323e+00 2.4006780663823594e-05 0.0000000000000000e+00  1.1520244959098147e+00 3.4945306579828837e-05 0.0000000000000000e+00  1.1019778205656119e+00 8.9415258528902530e-02 0.0000000000000000e+00  1.1553876841306026e+00 -7.6693847355245193e-03 0.0000000000000000e+00  1.1515605159626521e+00 -3.7642368476542592e-04 0.0000000000000000e+00  1.1519443441903296e+00 -6.0516349739527420e-05 0.0000000000000000e+00  -1.5905108909905985e-01 -2.3010635723326500e-01 0.0000000000000000e+00  1.1519457739147401e+00 -4.3324998919987418e-05 0.0000000000000000e+00  3.9414331714024798e-07 2.7121989372804366e-09 0.0000000000000000e+00  -7.8093329833599054e-07 1.8475158751146615e-09 0.0000000000000000e+00  1.1479661001413637e+00 3.4583720362643746e-05 0.0000000000000000e+00  -2.8282447624564447e-06 6.0756532343160692e-07 0.0000000000000000e+00  3.0268535390497563e-06 -2.9192285531946537e-07 0.0000000000000000e+00  -5.6428300300568167e-06 -7.5395913998335122e-09 0.0000000000000000e+00  1.1517644217363530e+00 -4.1792750056434628e-06 0.0000000000000000e+00  4.5383718550549433e-07 -5.4753472562366110e-09 0.0000000000000000e+00  -3.9330366787655591e-06 1.5657956142513399e-08 0.0000000000000000e+00  1.1756325241073725e-06 -3.5083342181629983e-09 0.0000000000000000e+00  1.2609639412589020e+00 4.6791788786914507e-02 0.0000000000000000e+00  -1.3917951038489588e-06 4.5262652235299977e-08 0.0000000000000000e+00  2.6179664282865715e-06 6.6192617699341771e-09 0.0000000000000000e+00  -6.2408754424716698e-07 2.3787584884850968e-07 0.0000000000000000e+00  2.6571099242077047e-06 3.8405010617711450e-07 0.0000000000000000e+00  -3.8817412764267283e-06 6.5115502841352543e-07 0.0000000000000000e+00  -5.5441887892821908e-06 -5.2086981030182190e-07 0.0000000000000000e+00  3.9105676873654198e-07 9.8499134019866242e-11 0.0000000000000000e+00  1.1507790003242866e+00 -1.5597372195872588e-03 0.0000000000000000e+00  -1.4120598125145597e-06 -4.4805413909854642e-09 0.0000000000000000e+00  1.1520555530063812e+00 6.1327996844688559e-05 0.0000000000000000e+00  1.1523249933881257e+00 -8.1706899611669716e-04 0.0000000000000000e+00  1.1516079782606810e+00 7.1600372219028785e-05 0.0000000000000000e+00  1.1528553717690133e+00 -5.5306893426173072e-02 0.0000000000000000e+00  1.1516614940445569e+00 -6.1817288518434602e-05 0.0000000000000000e+00  2.0478273388833808e+00 -5.7852755742456116e-02 0.0000000000000000e+00  1.1515932934598963e+00 -7.1943922310309694e-05 0.0000000000000000e+00  1.1517313688792707e+00 -1.2896199750665199e-04 0.0000000000000000e+00  1.1477408557631461e+00 8.6282558726868020e-05 0.0000000000000000e+00  1.3072030928345473e+00 -2.6896111228796128e-02 0.0000000000000000e+00  1.3798581942731092e+00 1.3269734469075847e-01 0.0000000000000000e+00  1.5257344368618120e+00 1.5932374432344681e-01 0.0000000000000000e+00  1.1249990258793459e+00 -7.2008999637048609e-07 0.0000000000000000e+00  1.1249902287153859e+00 -3.4977844465290164e-07 0.0000000000000000e+00  1.1518216719807626e+00 -6.1466871355104089e-05 0.0000000000000000e+00  1.6586429871413033e+00 3.1620037651140692e-01 0.0000000000000000e+00  6.2773693403536934e-01 -8.1713630677196308e-02 0.0000000000000000e+00  1.5418309322021235e+00 -3.3197632657070320e-01 0.0000000000000000e+00  1.2393271537351089e+00 7.5649273013451326e-02 0.0000000000000000e+00  1.1346680977264536e+00 -2.3024414846374736e-05 0.0000000000000000e+00  1.1484614755783882e+00 -1.4921053368024250e-06 0.0000000000000000e+00  1.1500398624184052e+00 2.8092713817901328e-05 0.0000000000000000e+00  9.8190462717827198e-01 -1.3850218598474076e-01 0.0000000000000000e+00  1.1332222624019583e+00 -5.8334146691114042e-04 0.0000000000000000e+00  1.1520105246590040e+00 7.2598985354586660e-03 0.0000000000000000e+00  1.1462292078474048e+00 -5.4683085939308470e-05 0.0000000000000000e+00  1.1478455084021519e+00 -2.1946213702647444e-04 0.0000000000000000e+00  1.1483085786165330e+00 -1.3687905967352043e-04 0.0000000000000000e+00  1.1479357877176464e+00 -3.2326224472017853e-04 0.0000000000000000e+00  1.1486280786978911e+00 -1.7653028027715990e-04 0.0000000000000000e+00  1.1482987880420727e+00 1.2573514416077175e-04 0.0000000000000000e+00  1.1431053540280376e+00 -3.7314624745603117e-03 0.0000000000000000e+00  1.1168583178246221e+00 -1.5064384363494991e-05 0.0000000000000000e+00  1.1161376350603391e+00 -1.3880968356866171e-04 0.0000000000000000e+00  1.1519000562983033e+00 -1.2359376465683678e-05 0.0000000000000000e+00  1.1880565498744946e+00 2.5794332118991320e-01 0.0000000000000000e+00  1.1507514728104915e+00 1.2946231037566351e-04 0.0000000000000000e+00  -5.1881663866644467e-01 1.5199239941726353e-01 0.0000000000000000e+00  1.2353537159699874e+00 -3.7010819420579516e-02 0.0000000000000000e+00  1.1532573496667231e+00 -2.3529898368271299e-03 0.0000000000000000e+00  1.4056806080092255e+00 2.3625234813887871e-01 0.0000000000000000e+00  1.1516898764691010e+00 -3.0870402911266289e-05 0.0000000000000000e+00  1.8768208151261923e+00 -1.0593907414968531e-01 0.0000000000000000e+00  1.1403503818951841e+00 -2.4814412541549224e-01 0.0000000000000000e+00  -5.0767094392981726e-07 6.3042186750876393e-09 0.0000000000000000e+00  1.0962919198611518e+00 1.3284408089905814e-04 0.0000000000000000e+00  -1.5904719515398368e-06 8.0497690224506431e-09 0.0000000000000000e+00  -7.7044558378677229e-06 -1.1178028146332456e-07 0.0000000000000000e+00  1.1519782723875744e+00 1.1359812382033671e-05 0.0000000000000000e+00  2.3082315838330146e-06 -5.3752648735961290e-07 0.0000000000000000e+00  1.1154867011401863e+00 -1.1872393142916663e-04 0.0000000000000000e+00  -2.2083038922389825e-06 4.2577735637341435e-10 0.0000000000000000e+00  -1.8891089121058897e-06 6.4537507671822248e-09 0.0000000000000000e+00  1.1240655435028859e+00 -2.7109033560829142e-05 0.0000000000000000e+00  -6.7096293915106360e-07 2.6431289274989534e-07 0.0000000000000000e+00  1.6945213172836102e+00 -3.7801542024460616e-01 0.0000000000000000e+00  1.5224537499983835e+00 -2.8038891770834923e-01 0.0000000000000000e+00  1.1460446535850186e+00 -1.5786226135590806e-02 0.0000000000000000e+00  1.3354325560452525e+00 -1.0345720054057901e-01 0.0000000000000000e+00  1.5109340535117164e+00 -4.2428392812577304e-01 0.0000000000000000e+00  1.3735976440724564e+00 1.2900592621548940e-01 0.0000000000000000e+00  1.1936280668005548e+00 2.7536219551353242e-01 0.0000000000000000e+00  1.1517263355325049e+00 2.4433776929707101e-05 0.0000000000000000e+00  1.1159047337097217e+00 -1.4581786096792037e-04 0.0000000000000000e+00  -5.8957292546484594e-07 4.9004990000590508e-10 0.0000000000000000e+00  1.0867898854158111e+00 4.4785365858759724e-02 0.0000000000000000e+00  1.1683884325894356e+00 -2.1185435274107677e-02 0.0000000000000000e+00  1.1519562988896022e+00 8.4869020218283824e-05 0.0000000000000000e+00  1.1515598609852451e+00 -8.8837957856007172e-04 0.0000000000000000e+00  1.1153841236392557e+00 -3.5816524971431370e-04 0.0000000000000000e+00  -2.5058857659773540e-06 9.8594790686381995e-09 0.0000000000000000e+00  1.1516722168116094e+00 -1.4019380868977773e-04 0.0000000000000000e+00  1.1161446777180908e+00 3.7920193257081598e-05 0.0000000000000000e+00  1.6780816575999320e+00 9.6911572479008071e-02 0.0000000000000000e+00  1.1513937599113075e+00 -3.5201922220631603e-04 0.0000000000000000e+00  1.1509922615763770e+00 -4.1864305821890171e-03 0.0000000000000000e+00  -6.3043089227438490e-06 -1.0699241020967719e-06 0.0000000000000000e+00  -1.2678295953128188e-05 -1.2925301659379923e-09 0.0000000000000000e+00  1.3657726714331959e+00 -1.0783438822982440e-02 0.0000000000000000e+00  1.3735998591650560e+00 1.3026050751592301e-03 0.0000000000000000e+00  1.5837259046306849e+00 -2.2532426351346657e-01 0.0000000000000000e+00  1.1558818152360557e+00 -1.5626409632058743e-03 0.0000000000000000e+00  -2.9277242605675293e-06 -2.5698257290532906e-07 0.0000000000000000e+00  6.5625066440160962e-01 -1.6592167521680140e-07 0.0000000000000000e+00  1.0617876945345412e+00 -5.2112270399377516e-03 0.0000000000000000e+00  1.2990509827187862e+00 -1.7957470396380731e-01 0.0000000000000000e+00  1.4646553829029316e+00 2.6309691081823389e-01 0.0000000000000000e+00  -4.4566466090486390e-06 4.0936571096548008e-09 0.0000000000000000e+00  1.1100221200386373e+00 5.8819818794205526e-05 0.0000000000000000e+00  1.1519421685079805e+00 -1.8215624616911891e-05 0.0000000000000000e+00  -3.3743299386671486e-06 2.3832457994501089e-09 0.0000000000000000e+00  -9.9684848230440534e-06 3.6400552153288190e-09 0.0000000000000000e+00  -3.8731242979241076e-06 -1.7947318398904569e-08 0.0000000000000000e+00  1.7293359355665652e-06 7.6746623115775681e-09 0.0000000000000000e+00  -2.0574409274563279e-06 -1.2919299346215947e-10 0.0000000000000000e+00  -7.6954382151856267e-06 2.2459446373335091e-06 0.0000000000000000e+00  -5.2212636998909127e-07 2.4747742984016836e-07 0.0000000000000000e+00  -5.4341255910021154e-06 2.7676183012813477e-07 0.0000000000000000e+00  7.0766361415455255e-06 1.6258430733577654e-07 0.0000000000000000e+00  6.4012493908806767e-07 8.7127082497951363e-07 0.0000000000000000e+00  -4.4835705954494576e-06 -4.1428627936625650e-07 0.0000000000000000e+00  8.5455320809509885e-07 1.7648936346508671e-07 0.0000000000000000e+00  -9.7762009873716052e-08 4.3542285148214633e-09 0.0000000000000000e+00  1.3563213423139154e-05 -1.5237815122449206e-06 0.0000000000000000e+00  2.7291624272774289e-06 2.0006582899039489e-07 0.0000000000000000e+00  -7.2792242418386743e-07 -1.8029124777275167e-08 0.0000000000000000e+00  -7.0888485592680218e-06 -1.1321323877073404e-08 0.0000000000000000e+00  -2.0878539346236690e-06 5.0126818883599561e-09 0.0000000000000000e+00  -6.2570312726357231e-07 3.1023315113120266e-09 0.0000000000000000e+00  1.0653448397797509e+00 6.0493904254292123e-05 0.0000000000000000e+00  1.0661998241545139e+00 -3.0034905738456660e-04 0.0000000000000000e+00  1.0896420059062779e+00 9.7959291173365450e-05 0.0000000000000000e+00  1.1076459693112923e+00 -2.1502365584700158e-04 0.0000000000000000e+00  1.1519891651871179e+00 7.2449180665519881e-05 0.0000000000000000e+00  1.1517117198153499e+00 -1.8100610519146190e-04 0.0000000000000000e+00  1.0161911477683430e+00 -7.2161244622771625e-02 0.0000000000000000e+00  1.0476250813166625e+00 1.8575370195267796e-05 0.0000000000000000e+00  -6.0342904719333290e-01 9.7452016434723412e-02 0.0000000000000000e+00  1.5676510154183276e+00 1.3239990585299513e-01 0.0000000000000000e+00  2.6379881666509564e-01 -8.3082163484797369e-02 0.0000000000000000e+00  1.1519386356727566e+00 -7.2394739550083172e-05 0.0000000000000000e+00  1.1520366074352635e+00 -6.2709155043635142e-05 0.0000000000000000e+00  1.1520063663671916e+00 -5.8015673916693242e-05 0.0000000000000000e+00  1.1519542829369638e+00 -2.0747934197868290e-05 0.0000000000000000e+00  1.0633757134480781e+00 3.8281113063339779e-05 0.0000000000000000e+00  1.0891347038009793e+00 -1.1489626868973931e-04 0.0000000000000000e+00  1.0481943170931647e+00 6.9905763314408591e-05 0.0000000000000000e+00  1.1446502639447456e+00 6.0568882716386151e-05 0.0000000000000000e+00  1.1153417901368279e+00 1.1571201852500211e-01 0.0000000000000000e+00  8.0560054765656297e-01 -9.2436271463052819e-02 0.0000000000000000e+00  6.3072947934290369e-01 9.5488206998191216e-02 0.0000000000000000e+00  1.1519136977874964e+00 5.2257258855833867e-05 0.0000000000000000e+00  1.1515950642616510e+00 -1.0225547797535293e-04 0.0000000000000000e+00  1.1517834625778829e+00 -2.3926180308708012e-05 0.0000000000000000e+00  1.0947471030338753e+00 6.4029174577925161e-05 0.0000000000000000e+00  1.1519227126227021e+00 6.7370939230423024e-05 0.0000000000000000e+00  1.1519737639191490e+00 -4.8740502508505464e-04 0.0000000000000000e+00  1.0769850131770387e+00 7.8655907031832927e-05 0.0000000000000000e+00  1.1517812544934243e+00 5.0063859337552572e-05 0.0000000000000000e+00  1.0683920139927725e+00 1.0305968042893874e-04 0.0000000000000000e+00  1.4893853631082012e+00 3.0402636550419741e-02 0.0000000000000000e+00  6.5624822589917065e-01 -1.8830827859977357e-07 0.0000000000000000e+00  7.0343975611532272e-01 5.5960789844627608e-02 0.0000000000000000e+00  1.4751150232498405e+00 1.8677978404192278e-01 0.0000000000000000e+00  1.6354668765806093e+00 3.1762031179085720e-01 0.0000000000000000e+00  1.0190834018670429e+00 -7.7472285181897472e-05 0.0000000000000000e+00  1.1712329057511430e+00 -4.6685270388484017e-02 0.0000000000000000e+00  1.1517809127777974e+00 -1.7226349665573335e-03 0.0000000000000000e+00  1.1510981039492991e+00 -1.0025596866166197e-04 0.0000000000000000e+00  1.1516881363766687e+00 -5.9115036442576896e-06 0.0000000000000000e+00  1.1515578412305065e+00 -6.4747791579215148e-05 0.0000000000000000e+00  1.2203857798752193e+00 1.6358177552392991e-01 0.0000000000000000e+00  8.8768171921657113e-01 1.2770784290786052e-01 0.0000000000000000e+00  7.2050350748328085e-01 5.2797605250981837e-02 0.0000000000000000e+00  1.1519603794316788e+00 7.4496894045588155e-07 0.0000000000000000e+00  1.1509865997439341e+00 -2.2777783999652649e-05 0.0000000000000000e+00  1.4281244170195933e+00 -4.6758038674311407e-02 0.0000000000000000e+00  1.1517955897815264e+00 -7.4587300577532925e-05 0.0000000000000000e+00  7.9192805822471046e-01 -1.0837723076058424e-01 0.0000000000000000e+00  1.0351880015478283e+00 5.9883298984961825e-05 0.0000000000000000e+00  7.1788468182904286e-01 7.3425019032816591e-02 0.0000000000000000e+00  9.4195283294004795e-01 9.4503019302518268e-02 0.0000000000000000e+00  5.9237449087913396e-01 -1.8783638475593317e-02 0.0000000000000000e+00  1.5584748454726245e+00 2.9263539011055145e-01 0.0000000000000000e+00  1.1518041532230319e+00 8.8358220779128781e-05 0.0000000000000000e+00  1.1796833567244083e+00 9.2032710899506466e-03 0.0000000000000000e+00  1.2236702478616652e+00 1.7358440586877680e-01 0.0000000000000000e+00  1.0682728406357191e+00 -1.4310595821002479e-05 0.0000000000000000e+00  1.1319309801440727e+00 -1.7823765294925953e-04 0.0000000000000000e+00  1.1509730148244595e+00 -6.4870042381594978e-04 0.0000000000000000e+00  1.1516086300583988e+00 -2.1289407950992082e-04 0.0000000000000000e+00  1.4112890989938003e+00 1.6497796181159211e-02 0.0000000000000000e+00  1.1514418126832708e+00 3.6677837160690957e-05 0.0000000000000000e+00  1.1517006000953793e+00 -2.3735364804996123e-05 0.0000000000000000e+00  1.1512796042353790e+00 -6.2068965869790048e-05 0.0000000000000000e+00  1.1488799241678143e+00 -2.3458083029726465e-03 0.0000000000000000e+00  9.4416299814181048e-01 -2.8130238225438368e-04 0.0000000000000000e+00  9.4417447132761367e-01 -1.9904786842100085e-04 0.0000000000000000e+00  9.9683174513116446e-01 -7.3131895738846972e-04 0.0000000000000000e+00  1.0410224105327239e+00 -2.1224452358077910e-04 0.0000000000000000e+00  1.0713722615024133e+00 3.4229455796468358e-05 0.0000000000000000e+00  1.1509794434039526e+00 -5.0643728599549240e-05 0.0000000000000000e+00  9.8344712146215707e-01 -1.2073951980161349e-04 0.0000000000000000e+00  1.1520502303467917e+00 2.1440762271573921e-05 0.0000000000000000e+00  1.1514682689483600e+00 -1.7333743284127577e-05 0.0000000000000000e+00  1.3447951956401805e+00 -9.3224241443070011e-02 0.0000000000000000e+00  1.1518929210294284e+00 -5.7144125637897642e-05 0.0000000000000000e+00  1.1515622970194022e+00 1.6744487914175131e-05 0.0000000000000000e+00  1.1827330636189810e+00 -1.3807693043588912e-01 0.0000000000000000e+00  8.9166834658987315e-01 -3.5547069132909026e-04 0.0000000000000000e+00  1.1449423687446345e+00 -6.7248833034698854e-04 0.0000000000000000e+00  1.5790351161241960e+00 -5.5167474777571057e-01 0.0000000000000000e+00  1.0245609152346340e+00 1.9270108213231059e-04 0.0000000000000000e+00  7.3816471488576252e-01 -7.8485535282839025e-02 0.0000000000000000e+00  1.4883968305496635e+00 -3.4192149636087792e-02 0.0000000000000000e+00  1.0104719611838933e+00 6.9399131037123684e-03 0.0000000000000000e+00  9.3650994742851501e-01 1.5780559651395429e-04 0.0000000000000000e+00  1.5342824629814895e+00 4.7868221841598113e-01 0.0000000000000000e+00  1.0087006867681370e+00 1.8296390231196574e-01 0.0000000000000000e+00  9.9819524459024744e-01 1.5904155117349062e-04 0.0000000000000000e+00  1.9136931003163369e+00 2.6584114304217715e-01 0.0000000000000000e+00  1.4568781067565590e+00 -5.1045233784806010e-01 0.0000000000000000e+00  9.7666133023041501e-01 -1.9151904666512964e-01 0.0000000000000000e+00  9.7177258197730731e-01 -1.3998698061222026e-02 0.0000000000000000e+00  7.4102548967603465e-01 -3.3995341405672258e-02 0.0000000000000000e+00  9.7752608240514405e-01 5.1939300332360610e-05 0.0000000000000000e+00  1.0174102932645737e+00 5.9892675533831153e-05 0.0000000000000000e+00  1.1507608863640826e+00 -4.3826912004601195e-04 0.0000000000000000e+00  2.5324636961985669e-01 -2.4903610015496083e-01 0.0000000000000000e+00  1.4062434331642859e+00 -1.6994428377798142e-06 0.0000000000000000e+00  1.1519200367937366e+00 5.5627876782463745e-05 0.0000000000000000e+00  9.9904904076368695e-01 -6.6918738193465156e-04 0.0000000000000000e+00  1.4062432108045642e+00 -1.4407608247561684e-06 0.0000000000000000e+00  9.9892646562532739e-01 6.8066303535870985e-06 0.0000000000000000e+00  1.1491149978831028e+00 -7.6422603337376240e-03 0.0000000000000000e+00  1.1565191718110943e+00 6.7246075022424912e-02 0.0000000000000000e+00  1.1513177324772255e+00 -2.0005099798522245e-05 0.0000000000000000e+00  7.1581055824480477e-01 9.9758376869388918e-02 0.0000000000000000e+00  1.1518464429814754e+00 -1.8685391054029885e-05 0.0000000000000000e+00  9.7867314334528177e-01 -2.5131422316660579e-04 0.0000000000000000e+00  8.8347902158030478e-01 4.9642230555716975e-02 0.0000000000000000e+00  8.3777642802191754e-01 7.2430384905176101e-05 0.0000000000000000e+00  1.1499719742949686e+00 -3.8183270673546734e-06 0.0000000000000000e+00  8.3818289770945509e-01 2.7583572596983739e-07 0.0000000000000000e+00  9.42768940631146