<?xml version="1.0"?>
<VTKFile type="UnstructuredGrid"  version="0.1"  >
<UnstructuredGrid>
<Piece  NumberOfPoints="2446" NumberOfCells="4585">
<Points>
<DataArray  type="Float64"  NumberOfComponents="3"  format="ascii">0 0.41 0  0 0 0  2.2 0 0  2.2 0.41 0  0.2404508497187474 0.2293892626146237 0  0.25 0.2 0  0.2404508497187474 0.1706107373853764 0  0.2154508497187474 0.1524471741852423 0  0.1845491502812526 0.1524471741852423 0  0.1595491502812526 0.1706107373853764 0  0.15 0.2 0  0.1595491502812526 0.2293892626146237 0  0.1845491502812527 0.2475528258147577 0  0.2154508497187474 0.2475528258147577 0  1.1 0 0  1.1 0.41 0  0 0.205 0  0.55 0 0  0.55 0.41 0  0.275 0 0  0.275 0.41 0  1.65 0.41 0  1.65 0 0  0.8250000000000001 0.41 0  0.8250000000000001 0 0  1.375 0 0  1.375 0.41 0  1.925 0 0  1.925 0.41 0  1.5125 0.205 0  1.7875 0.205 0  0.6875 0.205 0  0.9625000000000001 0.205 0  1.2375 0.205 0  2.2 0.205 0  0.4687002074688797 0.2068568464730291 0  1.99375 0.2152743902439024 0  2.0625 0 0  2.0625 0.41 0  2.2 0.3075 0  0.4125 0 0  0.4125 0.41 0  1.7875 0.41 0  1.375 0.1486128048780488 0  1.5125 0 0  1.7875 0 0  1.5125 0.41 0  0.8250000000000001 0.2613871951219511 0  0.9625000000000001 0.41 0  0.9625000000000001 0 0  0.6875 0.41 0  0.6875 0 0  0.1375 0 0  0.1375 0.41 0  1.2375 0 0  1.1 0.1486128048780487 0  1.2375 0.41 0  1.65 0.1486128048780487 0  1.126715909090909 0.2793064024390244 0  1.676715909090909 0.2793064024390244 0  0.8517159090909092 0.1306935975609756 0  1.348284090909091 0.2793064024390244 0  0.34375 0.3032389320646208 0  1.894702181800738 0.1282910975492754 0  2.092797818199262 0.1282910975492754 0  1.85625 0.3075 0  0.61875 0.3075 0  0.61875 0.1025 0  0.3648540804333487 0.1240075933101478 0  0 0.3075 0  0 0.1025 0  2.099172119769978 0.25625 0  0.48125 0.09238439620688085 0  0.5781001037344399 0.2059284232365146 0  0.48125 0.3196743479159776 0  0.7265881057911006 0.3055240343720796 0  1.99375 0.08395950269330846 0  1.459960956013612 0.3075 0  1.569025960719943 0.2986889805672169 0  0.75625 0.08213100772579164 0  1.03125 0.3278689922742084 0  0.923871252904788 0.3078247185783941 0  1.959375 0.3126371951219512 0  1.749222215368287 0.1025 0  1.275777784631713 0.1025 0  2.2 0.1025 0  1.225938124459196 0.3075 0  1.550777784631713 0.1025 0  1.000777784631713 0.1025 0  1.44375 0.07430640243902442 0  1.16875 0.07430640243902437 0  1.899250267340833 0.2229966846119207 0  0.1020898364287272 0.3140258291809757 0  1.766482954545455 0.2934032012195123 0  0.3405058858996321 0.2119987970531874 0  0.7710785630958338 0.1710968191298857 0  1.046078563095834 0.2389031808701144 0  0.2 0.3400647632937836 0  1.421109702350723 0.2261157654379721 0  0.2800464974185557 0.08982544815605742 0  0.098916018031319 0.09171660955420841 0  2.13125 0 0  2.118919042110979 0.3422084711244843 0  1.30625 0.41 0  0.89375 0 0  1.597888256393107 0.2173787389261347 0  0.20625 0 0  1.829299675393195 0.07400700849299596 0  1.71875 0.41 0  1.16875 0.41 0  2.038220665644273 0.332420740103091 0  0.34375 0 0  0.417496017710808 0.2696595573092803 0  0.2 0.07687845740457822 0  0.9295982307099278 0.1343158415898188 0  0.07390688010811153 0.1697064032433452 0  0.5238366813727013 0.2578302467013575 0  0.05452951551825875 0.25625 0  0.5229630068078351 0.1548816096928243 0  1.452769549894695 0.1548122580621249 0  1.369219062229598 0.07430640243902442 0  1.30625 0 0  0.8504409521244898 0.3356935975609756 0  0.8821881244591965 0.205 0  1.720943423819132 0.1714577452753128 0  1.157188124459196 0.205 0  1.094219062229598 0.07430640243902437 0  1.03125 0 0  1.304056576180868 0.1714577452753128 0  1.67579304192913 0.07430640243902437 0  0.2751941921308361 0.3346083473122598 0  1.209670467133757 0.1362100266964769 0  1.025335513626278 0.1700681449722324 0  0.7562500000000001 0.41 0  1.58125 0 0  0.7567170593862014 0.2409196493502535 0  0.6926714215682891 0.1272249611432207 0  0.4139715849905988 0.3397932387114203 0  0.9840787304190477 0.2717749043358119 0  0.06875000000000001 0.41 0  0 0.35875 0  0.9281250000000001 0.06276726142697993 0  0.5507396469029935 0.3219409231578227 0  0.5504468037989405 0.09136885600634273 0  1.58125 0.41 0  1.631724228912893 0.3381867502687533 0  1.825608881788174 0.14499488549201 0  1.85625 0 0  1.44375 0 0  1.44375 0.41 0  1.85625 0.41 0  2.13125 0.41 0  0.7562500000000001 0 0  0.89375 0.41 0  0.4812500000000001 0 0  0.34375 0.41 0  0.4812500000000001 0.41 0  0.20625 0.41 0  0.06875000000000001 0 0  1.16875 0 0  0.61875 0 0  0.61875 0.41 0  1.03125 0.41 0  1.71875 0 0  1.99375 0 0  1.99375 0.41 0  1.340625 0.3489494290853124 0  1.134375 0.3489494290853123 0  1.700180620188976 0.3438659752031281 0  2.135782184673599 0.07126652247502523 0  1.668441847249787 0.2129203728327609 0  1.295782514339747 0.2378437748815763 0  0.8233075729931248 0.06842334294821524 0  1.409375 0.3520314716057996 0  0.403505597322782 0.182067236678212 0  0.378125 0.05794951541303489 0  0.3043468223249023 0.1518321115979534 0  2.129248544730567 0.1906135162504124 0  2.060771381434487 0.1989445750470348 0  2.013252586573865 0.1496169464686054 0  1.942766402200229 0.1734448904596831 0  1.895522487186454 0.06076163953489683 0  2.069553871656643 0.06605731020975725 0  1.274680914880868 0.3520219391081363 0  1.614713220494657 0.09473434380863296 0  0.7899021319497519 0.3149123934144827 0  0.69518737419149 0.0634051089053758 0  0.2971740475496061 0.2592172353407536 0  1.72990325744076 0.2380068107952482 0  1.356580098625191 0.2120393231351682 0  2.034370752044885 0.2668681600792073 0  1.51768709249349 0.3426260931494756 0  1.561883724969884 0.1650446847858835 0  1.197344062229598 0.2523725417393646 0  1.804085235518364 0.3468178408964637 0  1.817887819205233 0.2589243285818559 0  1.905897727272727 0.3485060975609756 0  0.6719798073392919 0.2688965171178177 0  0 0.05125 0  0.653125 0.35875 0  0.6396896119294488 0.1627615407790282 0  0.4274150154087412 0.1242548552168279 0  1.192836486056382 0.3562350748565544 0  0.8279124365364005 0.183856489168822 0  1.097485222388854 0.2083571153401724 0  1.28257088594801 0.2944411014911587 0  1.474860187679412 0.2504218616229368 0  1.406767003493824 0.2829282258560709 0  0.446875 0.04619219810344041 0  0.515625 0.04585361801037557 0  0.592043440706648 0.05125 0  1.845656689180403 0.1998310418452388 0  2.144958525570388 0.2909790873294231 0  0.6171090763650112 0.2492366900333857 0  2.2 0.15375 0  0.5145586920831158 0.3648371739579888 0  1.57794966442982 0.3540357145964566 0  0.721875 0.3633107922168974 0  0.0496154796471391 0.333125 0  0.5843750000000001 0.3662560860076676 0  0.5810878747760798 0.1474002776121195 0  1.508991196088596 0.1421783375065625 0  0.8840670607017558 0.2640994375393898 0  0.09776612425612034 0.2204896805326566 0  1.50436820029908 0.06143401634903343 0  1.223857000523521 0.0823554862453532 0  1.153316824384777 0.1289850171317837 0  2.148922302309752 0.1258841779285271 0  0.309375 0.04312325590431198 0  1.621993280276081 0.2841214267927899 0  1.550118654119087 0.2461998729100966 0  1.327182649291491 0.1216967252533594 0  1.051977450479407 0.1221382572915816 0  1.753125 0.04556020050186112 0  1.271875 0.04556020050186116 0  0.9816084133102366 0.05126138213476004 0  1.039051841454368 0.0572224914831029 0  0.9719230514536006 0.3480477870845102 0  1.94956388244759 0.1180512551534177 0  1.949997712993411 0.04965831614304109 0  1.771961817615021 0.1530278789497521 0  1.909246823951428 0.2812757146784527 0  0.2459536687882397 0.04668633953831142 0  1.948575539857022 0.2445328248721197 0  1.697271520964565 0.1233917627620729 0  0.7964897648514618 0.1211426571931604 0  1.065625 0.3689344961371042 0  1.085849084308977 0.3170853572226867 0  0.4702981435440001 0.260434880697798 0  1.577403511714593 0.05463601888079143 0  0.05622663515370135 0.05493816910862376 0  0.3267207591099919 0.3566194660323104 0  0.9003051618565143 0.3564049499960621 0  1.751571320346033 0.3651102912045228 0  0.1583785085108421 0.2994699345738728 0  0.1455283439499995 0.3542795598723423 0  2.2 0.35875 0  0.2347662494194072 0.298325008655211 0  0.1527284455616188 0.1065771775690181 0  0.1382139529076665 0.05427454456341477 0  0.8749341636311069 0.05110114999892954 0  0.643661668713109 0.05693499781019222 0  1.466879772203159 0.3611261772912453 0  1.990280163552011 0.3564754268533217 0  1.17471064520912 0.2990917256188288 0  0.5202693090594349 0.206382495511728 0  0 0.25625 0  2.2 0.25625 0  2.2 0.05125 0  0 0.15375 0  1.853978576207987 0.35875 0  0.9787513713939683 0.1487523696999336 0  0.240625 0.3722153812029779 0  1.515638456102889 0.2882700110184686 0  0.09048297387599738 0.3637717362208066 0  2.150453692751374 0.2387066338105111 0  1.323782677156475 0.04897634338873398 0  0.8074131292871642 0.3624701995505916 0  1.409375 0.03715320121951221 0  1.406484531114799 0.1087852750766809 0  1.134375 0.03715320121951218 0  1.627401732573545 0.04552157221025036 0  0.1170173172005315 0.1427610859166811 0  2.045405893604797 0.1105340662939892 0  1.255408269734577 0.1577307500159216 0  2.028125 0.03707597992059326 0  0.4743610090857199 0.1421513964721819 0  0.9354010469015898 0.250631300585664 0  0.04420832937638274 0.128125 0  0.8922386349349938 0.0992956419364831 0  0.1197849154434487 0.2663398672460083 0  1.248258025468107 0.2565907092181813 0  0.3746885856929528 0.370723531618974 0  1.203125 0.0366132337404304 0  0.5724622277005015 0.2751253816079333 0  0.3365425205162783 0.08395777655057959 0  2.072662025974815 0.2975086504196739 0  0.4581080832182547 0.3648371739579888 0  0.3874522734668214 0.2295447548840689 0  0.7827853612484443 0.04106550386289586 0  1.887722846421017 0.1760882698830035 0  1.472640588990488 0.1118278026240017 0  1.865937103925594 0.2604137786483804 0  1.463913572748262 0.2030442564990043 0  1.376426316059077 0.3186741374914345 0  0.6641993820150034 0.3141688596240831 0  0.2943117490824315 0.2130987422685822 0  0.3478153998082709 0.1666571081082676 0  0.3427990510599805 0.2575950027870776 0  0.7997118993855807 0.2216171933356366 0  
[...]
<PointData  Vectors="f_31"> 
<DataArray  type="Float64"  Name="f_31"  NumberOfComponents="3" format="ascii">1.5381760173371035e-06 -4.4938120103391883e-07 0.0000000000000000e+00  -3.1862609027426871e-06 1.0069620105340639e-06 0.0000000000000000e+00  3.7792478014182321e-06 3.2151245258971016e-08 0.0000000000000000e+00  -1.7183342152409406e-05 3.6870483979764859e-07 0.0000000000000000e+00  1.4130741708994619e-05 -3.1639682354402772e-05 0.0000000000000000e+00  5.0645762040684448e-05 -1.5610426039176693e-05 0.0000000000000000e+00  7.4732547899532536e-05 3.8243561095866451e-05 0.0000000000000000e+00  -6.4414935691353253e-06 -1.0732202144510608e-05 0.0000000000000000e+00  -1.5203388416837874e-05 -1.0339313580125296e-05 0.0000000000000000e+00  -1.0338979653231707e-05 3.8005763291199607e-06 0.0000000000000000e+00  2.2914527005361091e-06 6.9745261443321342e-06 0.0000000000000000e+00  -7.1852976795515779e-06 -4.6481517429518934e-06 0.0000000000000000e+00  8.8192562437311201e-06 5.0327096153930122e-06 0.0000000000000000e+00  -1.0437272070405032e-05 -3.2273211638326175e-06 0.0000000000000000e+00  -3.2975504516926285e-06 -1.2056074580546170e-07 0.0000000000000000e+00  -1.1840642357016586e-06 -5.0973514913793577e-08 0.0000000000000000e+00  1.5000040175002396e+00 1.1468085804461701e-06 0.0000000000000000e+00  -1.0901755129084435e-05 -6.0967511541778056e-08 0.0000000000000000e+00  8.3207856181123447e-07 -4.5621575123407658e-09 0.0000000000000000e+00  -6.5759688182433597e-06 4.0098898051799535e-06 0.0000000000000000e+00  -1.7039820582780772e-05 -3.0905096945948913e-06 0.0000000000000000e+00  -9.3237155911288453e-07 -2.0000008864718960e-07 0.0000000000000000e+00  -7.5439943384871504e-07 -1.0092662408747039e-08 0.0000000000000000e+00  -3.1339210164084424e-07 -1.3593655398874423e-07 0.0000000000000000e+00  -6.9692256359630731e-06 4.1773702580593504e-08 0.0000000000000000e+00  -4.5406523091711634e-06 -5.8185615741533222e-09 0.0000000000000000e+00  -1.5618154563017752e-06 -3.3035931287094585e-07 0.0000000000000000e+00  -3.6093453565640377e-06 -3.9018939074465595e-08 0.0000000000000000e+00  -3.3762881667984503e-06 -3.5824871046591339e-08 0.0000000000000000e+00  1.0793696798030967e+00 3.9126770995911562e-05 0.0000000000000000e+00  1.0792718460460715e+00 3.3063152049895256e-05 0.0000000000000000e+00  1.0782976113730998e+00 -1.6005474285687637e-03 0.0000000000000000e+00  1.0792322372673957e+00 -1.2246544145851104e-04 0.0000000000000000e+00  1.0790897453848625e+00 -7.0369872739951718e-06 0.0000000000000000e+00  1.0797164250853353e+00 1.1092253350076854e-04 0.0000000000000000e+00  1.0195199672334647e+00 -1.5250853431571083e-02 0.0000000000000000e+00  1.0791943017844698e+00 -1.1699189693540415e-07 0.0000000000000000e+00  -6.7200903268994330e-07 -4.3606485499597482e-08 0.0000000000000000e+00  -5.2880748328087958e-07 1.6592380903474023e-07 0.0000000000000000e+00  1.0790280516639048e+00 -4.6744480670196756e-04 0.0000000000000000e+00  -6.9304689532407516e-06 -5.0339989869870474e-07 0.0000000000000000e+00  -5.0052228753345586e-06 6.5212733011178771e-07 0.0000000000000000e+00  -7.1358750257582504e-06 4.0366925158748916e-08 0.0000000000000000e+00  1.0793128611389424e+00 5.0957488178374129e-05 0.0000000000000000e+00  -1.4578438098147151e-06 -2.5476589038845542e-07 0.0000000000000000e+00  -4.8716992805244034e-06 -3.9184929173033165e-08 0.0000000000000000e+00  -4.4041079976946161e-07 -2.0317513562529058e-07 0.0000000000000000e+00  1.0794308730846751e+00 -4.9428097354521389e-04 0.0000000000000000e+00  -2.7299658689520019e-06 1.4688494249561476e-07 0.0000000000000000e+00  1.9129344657644878e-06 3.8589079667265124e-08 0.0000000000000000e+00  2.2212249509233448e-06 -2.4885474767710456e-07 0.0000000000000000e+00  -8.1404597490736027e-06 3.1661953135328413e-07 0.0000000000000000e+00  1.7040226760659247e-05 -1.4920658533208803e-05 0.0000000000000000e+00  2.0514030300744353e-05 8.5125883559941641e-06 0.0000000000000000e+00  1.7279479807809838e-08 2.0447043075531878e-08 0.0000000000000000e+00  1.0790759536466084e+00 -5.3627981900578430e-05 0.0000000000000000e+00  -2.3276966893297888e-06 -9.0476099611927039e-08 0.0000000000000000e+00  1.0792870218696686e+00 -6.0064202997672565e-05 0.0000000000000000e+00  1.0791804934098819e+00 -4.4531165602090842e-05 0.0000000000000000e+00  1.0791153731494065e+00 -5.1671548389861862e-05 0.0000000000000000e+00  1.0790568992467682e+00 -2.3555846755609315e-04 0.0000000000000000e+00  1.0794019119478442e+00 5.8809794012348457e-05 0.0000000000000000e+00  1.3484102805079190e+00 -2.6846391415837045e-01 0.0000000000000000e+00  1.0791911161096155e+00 -7.6974459344103917e-05 0.0000000000000000e+00  1.0793345861965324e+00 1.3484329363726836e-04 0.0000000000000000e+00  1.0790642782094890e+00 3.4792112259929300e-05 0.0000000000000000e+00  1.0827054045117128e+00 -4.8598572434418409e-03 0.0000000000000000e+00  1.0779976885903360e+00 1.0511158832821241e-03 0.0000000000000000e+00  1.1612025578523442e+00 3.2332802144468542e-01 0.0000000000000000e+00  1.1249985896257688e+00 9.9981658699894827e-07 0.0000000000000000e+00  1.1249897810801819e+00 4.3354446792501864e-07 0.0000000000000000e+00  1.0792572610371769e+00 3.5563364638158668e-05 0.0000000000000000e+00  1.0952892475515321e+00 3.3149523972416259e-02 0.0000000000000000e+00  1.0719636754551525e+00 -4.3493976356042052e-03 0.0000000000000000e+00  1.1128780184810612e+00 -3.9625399568141595e-02 0.0000000000000000e+00  1.0801602944087103e+00 -1.0428045395346037e-03 0.0000000000000000e+00  1.0790331888345466e+00 1.4102946102651894e-04 0.0000000000000000e+00  1.0790393514454830e+00 1.5535738919103206e-04 0.0000000000000000e+00  1.0789505289753003e+00 -8.8368303888945324e-06 0.0000000000000000e+00  1.0785825118026473e+00 -3.7957716110133228e-04 0.0000000000000000e+00  1.0784996246416763e+00 4.7407820598350354e-04 0.0000000000000000e+00  1.0793283585584434e+00 -4.4880307985537868e-05 0.0000000000000000e+00  1.0791234989777625e+00 1.9924187661967140e-04 0.0000000000000000e+00  1.0790240049935769e+00 -1.9237022580697063e-05 0.0000000000000000e+00  1.0792393458978073e+00 8.8623818817017182e-05 0.0000000000000000e+00  1.0790735641151086e+00 5.8174733099643889e-04 0.0000000000000000e+00  1.0791408201652688e+00 -1.0123105122944279e-04 0.0000000000000000e+00  1.0791436454291143e+00 5.7691459096096385e-05 0.0000000000000000e+00  1.0791737614189840e+00 -1.6175352411179346e-04 0.0000000000000000e+00  1.0788533977224333e+00 -3.7772559151816922e-04 0.0000000000000000e+00  1.0787210612407543e+00 1.9502824159423819e-04 0.0000000000000000e+00  1.0791818687337857e+00 9.8470959472231050e-06 0.0000000000000000e+00  1.1913875694754068e+00 2.3707402855395532e-01 0.0000000000000000e+00  1.0792817695616546e+00 2.1449674921882133e-05 0.0000000000000000e+00  1.2118537081586965e-01 -2.5050442754829194e-01 0.0000000000000000e+00  1.0788603025452623e+00 -6.4583885342947025e-04 0.0000000000000000e+00  1.0792446439620638e+00 -3.5286577909515484e-05 0.0000000000000000e+00  1.3781022699067735e+00 2.4053079395515747e-01 0.0000000000000000e+00  1.0792214276769745e+00 4.5600656615566922e-05 0.0000000000000000e+00  1.6036957024634459e+00 -1.7667460886313376e-02 0.0000000000000000e+00  1.1516467909226600e+00 -2.3763338917154087e-01 0.0000000000000000e+00  -8.7962986556810334e-07 1.4494595944587681e-07 0.0000000000000000e+00  1.0775574831730235e+00 1.0310835225250507e-03 0.0000000000000000e+00  -3.5057202432612055e-06 -4.8745226663041433e-09 0.0000000000000000e+00  -8.8147756631927883e-06 1.5408357864405616e-07 0.0000000000000000e+00  1.0793479966586819e+00 -3.6846670044263298e-05 0.0000000000000000e+00  1.0541576678512973e-05 1.0141967188866281e-06 0.0000000000000000e+00  1.0784854459618465e+00 -1.9051371433689263e-04 0.0000000000000000e+00  -4.3047685722001164e-06 -2.6968725340423180e-08 0.0000000000000000e+00  -1.6776124163097142e-06 1.3459525258482936e-07 0.0000000000000000e+00  1.0789676524005483e+00 -3.8996450739641126e-04 0.0000000000000000e+00  -2.3144276855900260e-06 6.4609667211216690e-07 0.0000000000000000e+00  1.0649502930213139e+00 -1.5532308357676972e-01 0.0000000000000000e+00  1.5357983955093233e+00 -2.6547267873631414e-01 0.0000000000000000e+00  1.0791632994289315e+00 -1.3380514677163087e-04 0.0000000000000000e+00  1.3388587068710596e+00 -1.0977937255569283e-01 0.0000000000000000e+00  1.0719115766596987e+00 -2.3180896778541984e-02 0.0000000000000000e+00  1.3734603953042119e+00 1.2147604540806647e-01 0.0000000000000000e+00  1.0641526441904683e+00 1.1066314532947470e-02 0.0000000000000000e+00  1.0791541689200832e+00 2.5607119923509387e-05 0.0000000000000000e+00  1.0782854467079939e+00 -3.6953566495492461e-04 0.0000000000000000e+00  -8.2252045239880199e-07 1.7956627457228987e-07 0.0000000000000000e+00  1.0788641680255544e+00 -1.6838147641039849e-04 0.0000000000000000e+00  1.0792255861593092e+00 -2.5059084137602270e-04 0.0000000000000000e+00  1.0792123825540205e+00 2.6906446729733405e-05 0.0000000000000000e+00  1.0790422377306157e+00 -1.0606302781255863e-05 0.0000000000000000e+00  1.0788101302009427e+00 -2.0994886498314260e-04 0.0000000000000000e+00  -4.3284065276016208e-06 1.6932695849511130e-07 0.0000000000000000e+00  1.0792242816819979e+00 5.5114742250864106e-05 0.0000000000000000e+00  1.0779795425756129e+00 -3.4210580409871870e-04 0.0000000000000000e+00  1.4451415360067312e+00 9.4552956771942490e-02 0.0000000000000000e+00  1.0791860759222378e+00 2.6335096375726113e-05 0.0000000000000000e+00  1.0791402199937958e+00 -1.0484335774624941e-04 0.0000000000000000e+00  -1.8453978124484805e-06 -3.1652296556934744e-08 0.0000000000000000e+00  -1.5426346165511076e-05 -1.7573954847659496e-07 0.0000000000000000e+00  1.0793673071169900e+00 -9.9838119839353165e-04 0.0000000000000000e+00  1.0784222463191044e+00 -4.1928995386620265e-04 0.0000000000000000e+00  1.1996115462159045e+00 -7.9188462789061456e-02 0.0000000000000000e+00  1.0793262292699104e+00 -7.8441073547469239e-05 0.0000000000000000e+00  -5.9303674545035203e-06 -1.0299207495376223e-07 0.0000000000000000e+00  6.5625044141777233e-01 2.8013091467380538e-08 0.0000000000000000e+00  1.0769581185182997e+00 2.3871662660073214e-04 0.0000000000000000e+00  1.0906286063134800e+00 -1.2255057006081056e-02 0.0000000000000000e+00  1.0817889817493072e+00 7.2917683864449252e-03 0.0000000000000000e+00  -7.0458176429959369e-06 1.4641074719636244e-07 0.0000000000000000e+00  1.0779248860452195e+00 7.4529187407016556e-04 0.0000000000000000e+00  1.0792615942278083e+00 -2.7725741291493992e-05 0.0000000000000000e+00  -3.6584642978793601e-06 -1.4678714454513264e-07 0.0000000000000000e+00  -1.1727079482249834e-05 3.0208217240146203e-08 0.0000000000000000e+00  -6.9762051073976415e-06 -2.4417502459577186e-07 0.0000000000000000e+00  5.2829368002267553e-07 -1.0035135879905462e-07 0.0000000000000000e+00  -4.6999389611075053e-06 -1.7237980955311832e-07 0.0000000000000000e+00  -8.4307030599980867e-07 2.2983045760323557e-08 0.0000000000000000e+00  -2.9735251062312974e-07 -5.0319942006703404e-09 0.0000000000000000e+00  -3.6910262831325484e-06 -5.8748964122598807e-07 0.0000000000000000e+00  3.6160679900214368e-06 -1.6292505028657638e-06 0.0000000000000000e+00  -1.4359508511944239e-05 2.3461867196082120e-07 0.0000000000000000e+00  -1.7245744291210968e-06 -4.4753605100448128e-06 0.0000000000000000e+00  -4.1101074419257037e-07 -1.7552568438982007e-06 0.0000000000000000e+00  -3.2822874778744998e-07 -1.4280344465181280e-07 0.0000000000000000e+00  -8.4229009038334591e-06 1.3937336039876183e-07 0.0000000000000000e+00  -5.9882591723917159e-06 -6.2841351683872911e-08 0.0000000000000000e+00  -8.2562183908692920e-07 -1.7236629050051648e-08 0.0000000000000000e+00  -8.7411829931703602e-06 1.3365526065880204e-08 0.0000000000000000e+00  -2.6179780175972323e-06 -6.3159558738278022e-08 0.0000000000000000e+00  -1.9803313239355006e-06 -4.2082576111919074e-07 0.0000000000000000e+00  1.0740338764342308e+00 5.8109279581505303e-04 0.0000000000000000e+00  1.0768799969703453e+00 8.4140201663943005e-06 0.0000000000000000e+00  1.0771907108251588e+00 -8.8914148475369484e-04 0.0000000000000000e+00  1.0777250059495118e+00 -2.6499132497628076e-04 0.0000000000000000e+00  1.0792710472578724e+00 -4.8356303862515576e-06 0.0000000000000000e+00  1.0792206035766270e+00 -2.2232559702729185e-05 0.0000000000000000e+00  1.0767481334616569e+00 -6.8859639644452085e-04 0.0000000000000000e+00  1.0750127199773265e+00 6.0207895004440017e-04 0.0000000000000000e+00  8.6475971539833285e-01 9.1155255906917032e-02 0.0000000000000000e+00  1.2623491350898794e+00 9.8412967483747546e-02 0.0000000000000000e+00  8.6109104315488771e-01 4.5489891838733837e-01 0.0000000000000000e+00  1.0793543527046030e+00 1.3456534314769216e-04 0.0000000000000000e+00  1.0793431076103728e+00 7.1943913796656669e-05 0.0000000000000000e+00  1.0792532070770198e+00 7.1878615586824481e-05 0.0000000000000000e+00  1.0791729249403794e+00 -4.2853466058162525e-06 0.0000000000000000e+00  1.0751113037563420e+00 -4.8813457132794539e-04 0.0000000000000000e+00  1.0770064438179419e+00 1.1267752479301622e-04 0.0000000000000000e+00  1.0765983032924051e+00 -5.4185931447324487e-04 0.0000000000000000e+00  1.0789351650000276e+00 -2.3227056280006664e-04 0.0000000000000000e+00  1.0796304628165019e+00 -5.3352427960398261e-04 0.0000000000000000e+00  1.0762551186074409e+00 -5.1994151468751396e-04 0.0000000000000000e+00  1.2295950721500788e+00 -3.7139190409637662e-01 0.0000000000000000e+00  1.0792659937834217e+00 1.5339506706993123e-07 0.0000000000000000e+00  1.0791860699601481e+00 1.5445959860073235e-05 0.0000000000000000e+00  1.0793128674311641e+00 -1.6584712713346147e-05 0.0000000000000000e+00  1.0771214354274519e+00 2.7924909271926713e-04 0.0000000000000000e+00  1.0792535777216368e+00 -2.1251104532496740e-05 0.0000000000000000e+00  1.0791394537878025e+00 -1.1702724403688596e-05 0.0000000000000000e+00  1.0772612293323609e+00 5.1190214733335250e-04 0.0000000000000000e+00  1.0792744257176212e+00 3.7276782107375974e-05 0.0000000000000000e+00  1.0772104935290630e+00 7.0040240989861828e-05 0.0000000000000000e+00  1.0798329307790919e+00 -2.6328248334907371e-03 0.0000000000000000e+00  6.5624813539873139e-01 5.2870125118467574e-07 0.0000000000000000e+00  1.0744239208103541e+00 -5.9891868743206379e-04 0.0000000000000000e+00  1.0769354114524370e+00 -6.5290584412416039e-04 0.0000000000000000e+00  1.0726498417871089e+00 1.1173971156632302e-01 0.0000000000000000e+00  1.0734015798475043e+00 1.3739275442331688e-03 0.0000000000000000e+00  1.0789860320050020e+00 -4.0688840686054200e-04 0.0000000000000000e+00  1.0790719028227758e+00 -5.4873699608775908e-05 0.0000000000000000e+00  1.0794105235039835e+00 -1.6395845131920512e-04 0.0000000000000000e+00  1.0791165272860130e+00 3.7135541881079209e-05 0.0000000000000000e+00  1.0792193104600289e+00 9.9502013245427308e-05 0.0000000000000000e+00  1.1171608891000964e+00 1.4641011333781385e-02 0.0000000000000000e+00  1.0736234421155171e+00 2.4736924478516061e-03 0.0000000000000000e+00  1.0712480474404065e+00 4.3064272824127085e-04 0.0000000000000000e+00  1.0792304329107942e+00 -5.4727906523583762e-06 0.0000000000000000e+00  1.0791425004437520e+00 -9.1890866389523359e-06 0.0000000000000000e+00  1.0780799676857480e+00 -5.3021953752518435e-03 0.0000000000000000e+00  1.0794723446942467e+00 4.6593296379769905e-04 0.0000000000000000e+00  1.0844366063143651e+00 -4.7746429782196467e-03 0.0000000000000000e+00  1.0752455733244750e+00 1.9911823400380905e-05 0.0000000000000000e+00  1.0623699695902129e+00 -3.3099729490201739e-04 0.0000000000000000e+00  9.4131535677942468e-01 8.8253145849653020e-02 0.0000000000000000e+00  1.0644650166193923e+00 -2.0707961911615577e-03 0.0000000000000000e+00  1.0743410917389169e+00 2.4894958081001757e-03 0.0000000000000000e+00  1.0791604354219777e+00 4.9756850267056703e-05 0.0000000000000000e+00  1.0793125958685377e+00 -2.3891726142427383e-04 0.0000000000000000e+00  1.2249997968471475e+00 1.5710618145162514e-01 0.0000000000000000e+00  1.0769903741803000e+00 4.1595981081598069e-04 0.0000000000000000e+00  1.0788957992581383e+00 -1.3900926686490723e-04 0.0000000000000000e+00  1.0792102532936627e+00 1.6741810946487738e-05 0.0000000000000000e+00  1.0793248248200071e+00 2.2204512142588704e-04 0.0000000000000000e+00  1.3646394012303904e+00 7.7902403695190039e-02 0.0000000000000000e+00  1.0790835660506233e+00 4.0862339911925163e-06 0.0000000000000000e+00  1.0791291979870419e+00 -6.4853337710211498e-06 0.0000000000000000e+00  1.0793504369235376e+00 1.3828913531687968e-04 0.0000000000000000e+00  1.0791158983743836e+00 -1.0065309482249698e-04 0.0000000000000000e+00  1.0604844759218790e+00 4.8776735168890571e-04 0.0000000000000000e+00  1.0594750679993585e+00 -5.5508772646461948e-04 0.0000000000000000e+00  1.0723700523183843e+00 -1.2074724778604997e-03 0.0000000000000000e+00  1.0757366901067602e+00 -1.1103150871233872e-04 0.0000000000000000e+00  1.0772491062337255e+00 -3.4200711080522754e-04 0.0000000000000000e+00  1.0792113846629039e+00 -6.0618802608815592e-06 0.0000000000000000e+00  1.0638058201105722e+00 -9.8759823013112977e-04 0.0000000000000000e+00  1.0793417860269199e+00 1.7579645526763058e-05 0.0000000000000000e+00  1.0793288547239390e+00 1.6636641929649568e-05 0.0000000000000000e+00  1.2521494221400087e+00 -1.2701187170180975e-01 0.0000000000000000e+00  1.0792379525550471e+00 -1.1263921215878671e-05 0.0000000000000000e+00  1.0792377850564441e+00 9.8238696233092036e-07 0.0000000000000000e+00  1.0788462739970250e+00 -4.0803171467604772e-04 0.0000000000000000e+00  1.0461483233465279e+00 5.4302691450028838e-04 0.0000000000000000e+00  1.0790223071940754e+00 7.4608226131661069e-06 0.0000000000000000e+00  1.0604605165855681e+00 -5.8796393598787827e-02 0.0000000000000000e+00  1.0727418244935856e+00 -2.6488323878152997e-04 0.0000000000000000e+00  7.3932006653284377e-01 -7.0289401908839921e-02 0.0000000000000000e+00  1.3572191838488850e+00 -8.3827980760703691e-02 0.0000000000000000e+00  1.0703136575138046e+00 6.5241164864112506e-04 0.0000000000000000e+00  1.0583477753434773e+00 -1.1071032096255406e-04 0.0000000000000000e+00  1.5403440925675553e+00 4.5061288269108546e-01 0.0000000000000000e+00  1.0079078672161967e+00 1.6255533580804257e-01 0.0000000000000000e+00  1.0687832240513251e+00 1.9198218443634141e-04 0.0000000000000000e+00  1.8848051201925202e+00 1.9870055286146840e-01 0.0000000000000000e+00  1.4900198864370693e+00 -4.9907696632303689e-01 0.0000000000000000e+00  9.9122686022160633e-01 -1.6901092427374040e-01 0.0000000000000000e+00  1.0675226982420774e+00 -7.7117266394337574e-04 0.0000000000000000e+00  1.0707360564609429e+00 -5.5100022585377107e-04 0.0000000000000000e+00  1.0659184491347193e+00 8.8784608847246749e-04 0.0000000000000000e+00  1.0729048590067152e+00 6.7973694065729905e-05 0.0000000000000000e+00  1.0792395769757512e+00 5.7007626191028778e-06 0.0000000000000000e+00  1.0575346546536919e+00 -7.8795774140201450e-03 0.0000000000000000e+00  1.4062434288235324e+00 1.1244280035545792e-06 0.0000000000000000e+00  1.0795890457902098e+00 -1.2890734612946913e-04 0.0000000000000000e+00  1.0692000894358613e+00 -1.4239050908462333e-04 0.0000000000000000e+00  1.4062425706445303e+00 6.6007869761390106e-07 0.0000000000000000e+00  1.0710696829718800e+00 -1.0859897324502044e-04 0.0000000000000000e+00  1.0790845317458990e+00 -1.4032709027556172e-04 0.0000000000000000e+00  1.1491224820703432e+00 1.0207159133656689e-01 0.0000000000000000e+00  1.0790349348308994e+00 -4.6421541414702936e-06 0.0000000000000000e+00  7.2380410089672453e-01 6.8121263974193255e-02 0.0000000000000000e+00  1.0793674038835701e+00 4.6642258945566268e-05 0.0000000000000000e+00  1.0669796927684319e+00 7.2855269743094106e-04 0.0000000000000000e+00  1.0643446703968682e+00 1.0339243112661058e-04 0.0000000000000000e+00  1.0258292671069578e+00 3.5145890340504209e-04 0.0000000000000000e+00  1.0792938921255102e+00 -9.2918414414861118e-05 0.0000000000000000e+00  1.0274791828464376e+00 -1.1449001553191349e-04 0.0000000000000000e+00  1.059442