<?xml version="1.0"?>
<VTKFile type="UnstructuredGrid"  version="0.1"  >
<UnstructuredGrid>
<Piece  NumberOfPoints="2446" NumberOfCells="4585">
<Points>
<DataArray  type="Float64"  NumberOfComponents="3"  format="ascii">0 0.41 0  0 0 0  2.2 0 0  2.2 0.41 0  0.2404508497187474 0.2293892626146237 0  0.25 0.2 0  0.2404508497187474 0.1706107373853764 0  0.2154508497187474 0.1524471741852423 0  0.1845491502812526 0.1524471741852423 0  0.1595491502812526 0.1706107373853764 0  0.15 0.2 0  0.1595491502812526 0.2293892626146237 0  0.1845491502812527 0.2475528258147577 0  0.2154508497187474 0.2475528258147577 0  1.1 0 0  1.1 0.41 0  0 0.205 0  0.55 0 0  0.55 0.41 0  0.275 0 0  0.275 0.41 0  1.65 0.41 0  1.65 0 0  0.8250000000000001 0.41 0  0.8250000000000001 0 0  1.375 0 0  1.375 0.41 0  1.925 0 0  1.925 0.41 0  1.5125 0.205 0  1.7875 0.205 0  0.6875 0.205 0  0.9625000000000001 0.205 0  1.2375 0.205 0  2.2 0.205 0  0.4687002074688797 0.2068568464730291 0  1.99375 0.2152743902439024 0  2.0625 0 0  2.0625 0.41 0  2.2 0.3075 0  0.4125 0 0  0.4125 0.41 0  1.7875 0.41 0  1.375 0.1486128048780488 0  1.5125 0 0  1.7875 0 0  1.5125 0.41 0  0.8250000000000001 0.2613871951219511 0  0.9625000000000001 0.41 0  0.9625000000000001 0 0  0.6875 0.41 0  0.6875 0 0  0.1375 0 0  0.1375 0.41 0  1.2375 0 0  1.1 0.1486128048780487 0  1.2375 0.41 0  1.65 0.1486128048780487 0  1.126715909090909 0.2793064024390244 0  1.676715909090909 0.2793064024390244 0  0.8517159090909092 0.1306935975609756 0  1.348284090909091 0.2793064024390244 0  0.34375 0.3032389320646208 0  1.894702181800738 0.1282910975492754 0  2.092797818199262 0.1282910975492754 0  1.85625 0.3075 0  0.61875 0.3075 0  0.61875 0.1025 0  0.3648540804333487 0.1240075933101478 0  0 0.3075 0  0 0.1025 0  2.099172119769978 0.25625 0  0.48125 0.09238439620688085 0  0.5781001037344399 0.2059284232365146 0  0.48125 0.3196743479159776 0  0.7265881057911006 0.3055240343720796 0  1.99375 0.08395950269330846 0  1.459960956013612 0.3075 0  1.569025960719943 0.2986889805672169 0  0.75625 0.08213100772579164 0  1.03125 0.3278689922742084 0  0.923871252904788 0.3078247185783941 0  1.959375 0.3126371951219512 0  1.749222215368287 0.1025 0  1.275777784631713 0.1025 0  2.2 0.1025 0  1.225938124459196 0.3075 0  1.550777784631713 0.1025 0  1.000777784631713 0.1025 0  1.44375 0.07430640243902442 0  1.16875 0.07430640243902437 0  1.899250267340833 0.2229966846119207 0  0.1020898364287272 0.3140258291809757 0  1.766482954545455 0.2934032012195123 0  0.3405058858996321 0.2119987970531874 0  0.7710785630958338 0.1710968191298857 0  1.046078563095834 0.2389031808701144 0  0.2 0.3400647632937836 0  1.421109702350723 0.2261157654379721 0  0.2800464974185557 0.08982544815605742 0  0.098916018031319 0.09171660955420841 0  2.13125 0 0  2.118919042110979 0.3422084711244843 0  1.30625 0.41 0  0.89375 0 0  1.597888256393107 0.2173787389261347 0  0.20625 0 0  1.829299675393195 0.07400700849299596 0  1.71875 0.41 0  1.16875 0.41 0  2.038220665644273 0.332420740103091 0  0.34375 0 0  0.417496017710808 0.2696595573092803 0  0.2 0.07687845740457822 0  0.9295982307099278 0.1343158415898188 0  0.07390688010811153 0.1697064032433452 0  0.5238366813727013 0.2578302467013575 0  0.05452951551825875 0.25625 0  0.5229630068078351 0.1548816096928243 0  1.452769549894695 0.1548122580621249 0  1.369219062229598 0.07430640243902442 0  1.30625 0 0  0.8504409521244898 0.3356935975609756 0  0.8821881244591965 0.205 0  1.720943423819132 0.1714577452753128 0  1.157188124459196 0.205 0  1.094219062229598 0.07430640243902437 0  1.03125 0 0  1.304056576180868 0.1714577452753128 0  1.67579304192913 0.07430640243902437 0  0.2751941921308361 0.3346083473122598 0  1.209670467133757 0.1362100266964769 0  1.025335513626278 0.1700681449722324 0  0.7562500000000001 0.41 0  1.58125 0 0  0.7567170593862014 0.2409196493502535 0  0.6926714215682891 0.1272249611432207 0  0.4139715849905988 0.3397932387114203 0  0.9840787304190477 0.2717749043358119 0  0.06875000000000001 0.41 0  0 0.35875 0  0.9281250000000001 0.06276726142697993 0  0.5507396469029935 0.3219409231578227 0  0.5504468037989405 0.09136885600634273 0  1.58125 0.41 0  1.631724228912893 0.3381867502687533 0  1.825608881788174 0.14499488549201 0  1.85625 0 0  1.44375 0 0  1.44375 0.41 0  1.85625 0.41 0  2.13125 0.41 0  0.7562500000000001 0 0  0.89375 0.41 0  0.4812500000000001 0 0  0.34375 0.41 0  0.4812500000000001 0.41 0  0.20625 0.41 0  0.06875000000000001 0 0  1.16875 0 0  0.61875 0 0  0.61875 0.41 0  1.03125 0.41 0  1.71875 0 0  1.99375 0 0  1.99375 0.41 0  1.340625 0.3489494290853124 0  1.134375 0.3489494290853123 0  1.700180620188976 0.3438659752031281 0  2.135782184673599 0.07126652247502523 0  1.668441847249787 0.2129203728327609 0  1.295782514339747 0.2378437748815763 0  0.8233075729931248 0.06842334294821524 0  1.409375 0.3520314716057996 0  0.403505597322782 0.182067236678212 0  0.378125 0.05794951541303489 0  0.3043468223249023 0.1518321115979534 0  2.129248544730567 0.1906135162504124 0  2.060771381434487 0.1989445750470348 0  2.013252586573865 0.1496169464686054 0  1.942766402200229 0.1734448904596831 0  1.895522487186454 0.06076163953489683 0  2.069553871656643 0.06605731020975725 0  1.274680914880868 0.3520219391081363 0  1.614713220494657 0.09473434380863296 0  0.7899021319497519 0.3149123934144827 0  0.69518737419149 0.0634051089053758 0  0.2971740475496061 0.2592172353407536 0  1.72990325744076 0.2380068107952482 0  1.356580098625191 0.2120393231351682 0  2.034370752044885 0.2668681600792073 0  1.51768709249349 0.3426260931494756 0  1.561883724969884 0.1650446847858835 0  1.197344062229598 0.2523725417393646 0  1.804085235518364 0.3468178408964637 0  1.817887819205233 0.2589243285818559 0  1.905897727272727 0.3485060975609756 0  0.6719798073392919 0.2688965171178177 0  0 0.05125 0  0.653125 0.35875 0  0.6396896119294488 0.1627615407790282 0  0.4274150154087412 0.1242548552168279 0  1.192836486056382 0.3562350748565544 0  0.8279124365364005 0.183856489168822 0  1.097485222388854 0.2083571153401724 0  1.28257088594801 0.2944411014911587 0  1.474860187679412 0.2504218616229368 0  1.406767003493824 0.2829282258560709 0  0.446875 0.04619219810344041 0  0.515625 0.04585361801037557 0  0.592043440706648 0.05125 0  1.845656689180403 0.1998310418452388 0  2.144958525570388 0.2909790873294231 0  0.6171090763650112 0.2492366900333857 0  2.2 0.15375 0  0.5145586920831158 0.3648371739579888 0  1.57794966442982 0.3540357145964566 0  0.721875 0.3633107922168974 0  0.0496154796471391 0.333125 0  0.5843750000000001 0.3662560860076676 0  0.5810878747760798 0.1474002776121195 0  1.508991196088596 0.1421783375065625 0  0.8840670607017558 0.2640994375393898 0  0.09776612425612034 0.2204896805326566 0  1.50436820029908 0.06143401634903343 0  1.223857000523521 0.0823554862453532 0  1.153316824384777 0.1289850171317837 0  2.148922302309752 0.1258841779285271 0  0.309375 0.04312325590431198 0  1.621993280276081 0.2841214267927899 0  1.550118654119087 0.2461998729100966 0  1.327182649291491 0.1216967252533594 0  1.051977450479407 0.1221382572915816 0  1.753125 0.04556020050186112 0  1.271875 0.04556020050186116 0  0.9816084133102366 0.05126138213476004 0  1.039051841454368 0.0572224914831029 0  0.9719230514536006 0.3480477870845102 0  1.94956388244759 0.1180512551534177 0  1.949997712993411 0.04965831614304109 0  1.771961817615021 0.1530278789497521 0  1.909246823951428 0.2812757146784527 0  0.2459536687882397 0.04668633953831142 0  1.948575539857022 0.2445328248721197 0  1.697271520964565 0.1233917627620729 0  0.7964897648514618 0.1211426571931604 0  1.065625 0.3689344961371042 0  1.085849084308977 0.3170853572226867 0  0.4702981435440001 0.260434880697798 0  1.577403511714593 0.05463601888079143 0  0.05622663515370135 0.05493816910862376 0  0.3267207591099919 0.3566194660323104 0  0.9003051618565143 0.3564049499960621 0  1.751571320346033 0.3651102912045228 0  0.1583785085108421 0.2994699345738728 0  0.1455283439499995 0.3542795598723423 0  2.2 0.35875 0  0.2347662494194072 0.298325008655211 0  0.1527284455616188 0.1065771775690181 0  0.1382139529076665 0.05427454456341477 0  0.8749341636311069 0.05110114999892954 0  0.643661668713109 0.05693499781019222 0  1.466879772203159 0.3611261772912453 0  1.990280163552011 0.3564754268533217 0  1.17471064520912 0.2990917256188288 0  0.5202693090594349 0.206382495511728 0  0 0.25625 0  2.2 0.25625 0  2.2 0.05125 0  0 0.15375 0  1.853978576207987 0.35875 0  0.9787513713939683 0.1487523696999336 0  0.240625 0.3722153812029779 0  1.515638456102889 0.2882700110184686 0  0.09048297387599738 0.3637717362208066 0  2.150453692751374 0.2387066338105111 0  1.323782677156475 0.04897634338873398 0  0.8074131292871642 0.3624701995505916 0  1.409375 0.03715320121951221 0  1.406484531114799 0.1087852750766809 0  1.134375 0.03715320121951218 0  1.627401732573545 0.04552157221025036 0  0.1170173172005315 0.1427610859166811 0  2.045405893604797 0.1105340662939892 0  1.255408269734577 0.1577307500159216 0  2.028125 0.03707597992059326 0  0.4743610090857199 0.1421513964721819 0  0.9354010469015898 0.250631300585664 0  0.04420832937638274 0.128125 0  0.8922386349349938 0.0992956419364831 0  0.1197849154434487 0.2663398672460083 0  1.248258025468107 0.2565907092181813 0  0.3746885856929528 0.370723531618974 0  1.203125 0.0366132337404304 0  0.5724622277005015 0.2751253816079333 0  0.3365425205162783 0.08395777655057959 0  2.072662025974815 0.2975086504196739 0  0.4581080832182547 0.3648371739579888 0  0.3874522734668214 0.2295447548840689 0  0.7827853612484443 0.04106550386289586 0  1.887722846421017 0.1760882698830035 0  1.472640588990488 0.1118278026240017 0  1.865937103925594 0.2604137786483804 0  1.463913572748262 0.2030442564990043 0  1.376426316059077 0.3186741374914345 0  0.6641993820150034 0.3141688596240831 0  0.2943117490824315 0.2130987422685822 0  0.3478153998082709 0.1666571081082676 0  0.3427990510599805 0.2575950027870776 0  0.7997118993855807 0.2216171933356366 0  
[...]
<PointData  Vectors="f_31"> 
<DataArray  type="Float64"  Name="f_31"  NumberOfComponents="3" format="ascii">1.8706346776188514e-06 -1.7527795153922329e-07 0.0000000000000000e+00  -2.7293381597206966e-06 5.7883060544805727e-07 0.0000000000000000e+00  4.0269558542546595e-06 -9.6818524276472608e-08 0.0000000000000000e+00  -1.7012379451199715e-05 2.0490635691476624e-07 0.0000000000000000e+00  -7.6960590224848998e-06 -2.0127465784320604e-05 0.0000000000000000e+00  3.5593377015660021e-05 -6.3844918947470704e-06 0.0000000000000000e+00  4.8443034840399497e-05 3.6803863971800108e-05 0.0000000000000000e+00  -1.3660073264610675e-05 -9.9730073258861077e-06 0.0000000000000000e+00  -1.6063933900989926e-05 -8.3309664463782561e-06 0.0000000000000000e+00  -9.9525818888514229e-06 3.3475566807427559e-06 0.0000000000000000e+00  1.7347046321090533e-06 7.3436960374099229e-06 0.0000000000000000e+00  -7.5202340340624196e-06 -4.4785504969991107e-06 0.0000000000000000e+00  8.6567157286585164e-06 4.1567203364720494e-06 0.0000000000000000e+00  -1.6378631727734019e-05 -7.8117807255307980e-07 0.0000000000000000e+00  -3.1303339800824497e-06 -4.9473350575184110e-08 0.0000000000000000e+00  -1.1721604479932789e-06 -1.2774296611490573e-07 0.0000000000000000e+00  1.5000040612223646e+00 1.2293145621936062e-06 0.0000000000000000e+00  -1.0834462114945714e-05 -1.2736397619325358e-07 0.0000000000000000e+00  3.3746701915299157e-07 2.4225786309187149e-08 0.0000000000000000e+00  -3.0061023874746969e-06 5.3911232082700064e-06 0.0000000000000000e+00  -1.4911017986961564e-05 -4.9900603771503090e-06 0.0000000000000000e+00  -2.1903821153757428e-07 -6.8612447160852853e-08 0.0000000000000000e+00  -7.6996880784687229e-07 -4.3599021431266827e-08 0.0000000000000000e+00  5.7193359431481004e-07 -1.9305048739102470e-07 0.0000000000000000e+00  -6.9201746000335633e-06 1.6849531290415668e-07 0.0000000000000000e+00  -4.1621090809274962e-06 1.5471156522903978e-08 0.0000000000000000e+00  -1.0372423548118651e-06 -1.6890557282684770e-07 0.0000000000000000e+00  -3.8411659897662768e-06 -4.2955229880266940e-08 0.0000000000000000e+00  -3.1884253825703147e-06 -4.5505963561898756e-08 0.0000000000000000e+00  1.0825316931870921e+00 4.1546869486419616e-05 0.0000000000000000e+00  1.0824283014408422e+00 2.8972370013990445e-05 0.0000000000000000e+00  1.0814392152133709e+00 -1.8060595900184332e-03 0.0000000000000000e+00  1.0823873423019814e+00 -1.3366210003335613e-04 0.0000000000000000e+00  1.0822290714924556e+00 -1.8070546974782329e-05 0.0000000000000000e+00  1.0827778776466024e+00 1.1379844125973263e-04 0.0000000000000000e+00  1.0125351906926838e+00 -1.8142916954142760e-02 0.0000000000000000e+00  1.0823406251466914e+00 -5.6559878852429127e-06 0.0000000000000000e+00  -8.0647905483876195e-07 9.7875241116963691e-08 0.0000000000000000e+00  -3.8271029022898753e-07 1.7651030496229738e-07 0.0000000000000000e+00  1.0821338880142819e+00 -3.1871526247227635e-04 0.0000000000000000e+00  -6.7393047706335325e-06 -7.0874135998346569e-07 0.0000000000000000e+00  -5.0310077958987123e-06 7.2711412287028006e-07 0.0000000000000000e+00  -6.9305256622258682e-06 1.0069606856246454e-07 0.0000000000000000e+00  1.0824696847861601e+00 6.1761456500066989e-05 0.0000000000000000e+00  -1.8214972020863957e-06 -1.6077387425717027e-07 0.0000000000000000e+00  -4.4587320573273858e-06 -1.5815329858770250e-07 0.0000000000000000e+00  3.0530980848759141e-07 -1.7641697613742676e-07 0.0000000000000000e+00  1.0826207930941680e+00 -5.4428206561323760e-04 0.0000000000000000e+00  -2.9388790557942305e-06 4.5807069517083531e-08 0.0000000000000000e+00  2.4788201609043188e-06 -1.1735225424513810e-07 0.0000000000000000e+00  2.6968786873162972e-06 -2.2234370799448203e-07 0.0000000000000000e+00  -7.5177189023336007e-06 2.0505904415522481e-07 0.0000000000000000e+00  8.2014419046811131e-06 -1.0500764430139639e-05 0.0000000000000000e+00  1.1493628431382924e-05 7.2635120783539285e-06 0.0000000000000000e+00  -1.9189172114862776e-07 4.6316115148020969e-08 0.0000000000000000e+00  1.0822259697864305e+00 -5.9343233661007024e-05 0.0000000000000000e+00  -2.9282889717494525e-06 -7.7874169268354732e-08 0.0000000000000000e+00  1.0824513259878803e+00 -6.2828247031541479e-05 0.0000000000000000e+00  1.0823271549440368e+00 -5.1333597391944335e-05 0.0000000000000000e+00  1.0822615542866640e+00 -3.4121233921808147e-05 0.0000000000000000e+00  1.0821869763026186e+00 -2.8890764332834148e-04 0.0000000000000000e+00  1.0825650234901003e+00 3.1402411984832088e-05 0.0000000000000000e+00  1.4038724817740507e+00 -2.6860760383847665e-01 0.0000000000000000e+00  1.0823597075351741e+00 -9.4528520837360261e-05 0.0000000000000000e+00  1.0824781232729712e+00 1.1279831824488903e-04 0.0000000000000000e+00  1.0821936049722769e+00 8.4773058944278911e-05 0.0000000000000000e+00  1.0864802310757609e+00 -5.2889997679851641e-03 0.0000000000000000e+00  1.0811838540828305e+00 1.0240862546022627e-03 0.0000000000000000e+00  1.1969601479230298e+00 3.5995033161987394e-01 0.0000000000000000e+00  1.1249987665149179e+00 7.7556135970923842e-07 0.0000000000000000e+00  1.1249899653030913e+00 7.6029854546866573e-07 0.0000000000000000e+00  1.0824110227430745e+00 2.8156114294896545e-05 0.0000000000000000e+00  1.1030584778188870e+00 3.7149071626206266e-02 0.0000000000000000e+00  1.0743575796073499e+00 -4.9579996231088712e-03 0.0000000000000000e+00  1.1230527870980531e+00 -4.4425834536361945e-02 0.0000000000000000e+00  1.0834841598821625e+00 -1.0994759288778528e-03 0.0000000000000000e+00  1.0821460326639538e+00 5.2629038959402775e-05 0.0000000000000000e+00  1.0822331634301818e+00 1.6802745461370270e-04 0.0000000000000000e+00  1.0820674124348832e+00 -1.0149563233925979e-05 0.0000000000000000e+00  1.0815794806020205e+00 -4.1599083146277231e-04 0.0000000000000000e+00  1.0816640815256353e+00 3.8263525204601078e-04 0.0000000000000000e+00  1.0825151389196341e+00 -4.9906462114133038e-05 0.0000000000000000e+00  1.0823491830038350e+00 1.7552337011201633e-04 0.0000000000000000e+00  1.0821168876768319e+00 -4.0430780455085105e-06 0.0000000000000000e+00  1.0823760254133925e+00 5.0441553307431008e-05 0.0000000000000000e+00  1.0821434545890587e+00 4.3512052983997652e-04 0.0000000000000000e+00  1.0823137745960421e+00 -2.1505116220402010e-05 0.0000000000000000e+00  1.0822593145074653e+00 8.7505751522221132e-05 0.0000000000000000e+00  1.0823634780805917e+00 -2.0977124943677962e-04 0.0000000000000000e+00  1.0819706752766602e+00 -2.7418632981082919e-04 0.0000000000000000e+00  1.0816790920931834e+00 1.5407516845515699e-04 0.0000000000000000e+00  1.0823400379766317e+00 3.7020904610781427e-06 0.0000000000000000e+00  1.1886730882774508e+00 2.4035874419303105e-01 0.0000000000000000e+00  1.0824299835427802e+00 -7.6175316509196988e-06 0.0000000000000000e+00  -9.1606820318889087e-04 -2.4242271193560525e-01 0.0000000000000000e+00  1.0819980900063102e+00 -7.3790323170008863e-04 0.0000000000000000e+00  1.0824083799833577e+00 -3.8114890553300206e-05 0.0000000000000000e+00  1.4021753829871262e+00 2.1818459436885596e-01 0.0000000000000000e+00  1.0823763498516634e+00 4.4555437508816884e-05 0.0000000000000000e+00  1.7053789395446013e+00 1.1193651827128429e-02 0.0000000000000000e+00  1.1481833240368504e+00 -2.4091199510488015e-01 0.0000000000000000e+00  -7.2137353518454732e-07 2.4745142872033371e-07 0.0000000000000000e+00  1.0808203499619569e+00 1.0298799131371566e-03 0.0000000000000000e+00  -3.1644414459214694e-06 -7.3690706845438408e-08 0.0000000000000000e+00  -8.4987420486340318e-06 2.1272699042698937e-07 0.0000000000000000e+00  1.0825164894063153e+00 -2.8229878518788549e-05 0.0000000000000000e+00  2.0951395925009544e-05 -9.4115790662740701e-07 0.0000000000000000e+00  1.0815523882349873e+00 -2.5041810499697441e-04 0.0000000000000000e+00  -4.1052165421620249e-06 7.4969617379197171e-08 0.0000000000000000e+00  -1.6957195878857734e-06 2.0032599105385579e-07 0.0000000000000000e+00  1.0817907600681975e+00 -3.5832125062958104e-04 0.0000000000000000e+00  -4.4415626632283742e-06 1.1538478591686628e-06 0.0000000000000000e+00  1.0739353600156309e+00 -1.7900952932031319e-01 0.0000000000000000e+00  1.5437585629991148e+00 -2.5278283498821091e-01 0.0000000000000000e+00  1.0823058163506210e+00 -1.3887651764329934e-04 0.0000000000000000e+00  1.3384589756030472e+00 -1.0934022464621755e-01 0.0000000000000000e+00  1.0746670764466877e+00 -2.6708023831380316e-02 0.0000000000000000e+00  1.3733973635570911e+00 1.2230521052954983e-01 0.0000000000000000e+00  1.0656238607568067e+00 1.2919007928930451e-02 0.0000000000000000e+00  1.0823235384203103e+00 2.4123404246936716e-05 0.0000000000000000e+00  1.0813271798346071e+00 -1.8688150988677794e-04 0.0000000000000000e+00  -9.4095502435427776e-07 1.6234274172040345e-07 0.0000000000000000e+00  1.0819049814817763e+00 -3.9435733706594129e-05 0.0000000000000000e+00  1.0823681809399672e+00 -2.8218166052369753e-04 0.0000000000000000e+00  1.0823667182011540e+00 2.2980095877805160e-05 0.0000000000000000e+00  1.0821910429844483e+00 -1.6398981953920744e-05 0.0000000000000000e+00  1.0819325795942403e+00 -1.9407746387815276e-04 0.0000000000000000e+00  -4.1012287861871458e-06 8.8787894884689412e-08 0.0000000000000000e+00  1.0823644648690758e+00 5.4495643514786915e-05 0.0000000000000000e+00  1.0811763497605387e+00 -3.1874624733921108e-04 0.0000000000000000e+00  1.4341522994738236e+00 1.2866522161626304e-01 0.0000000000000000e+00  1.0823396078942873e+00 1.9796600977484349e-05 0.0000000000000000e+00  1.0822920399548026e+00 -1.1423026832224839e-04 0.0000000000000000e+00  -1.4857477667472481e-06 -3.0619735498362267e-08 0.0000000000000000e+00  -1.5580799889644887e-05 -8.4865092557021838e-08 0.0000000000000000e+00  1.0825756953079173e+00 -1.0934989702914692e-03 0.0000000000000000e+00  1.0815041308286157e+00 -5.4069921977787608e-04 0.0000000000000000e+00  1.2209822467320053e+00 -8.7365769901564166e-02 0.0000000000000000e+00  1.0824775249236958e+00 -9.2585405200108217e-05 0.0000000000000000e+00  -7.0834182657992979e-06 -1.5766622225959650e-06 0.0000000000000000e+00  6.5625070318673262e-01 -1.2305879244199297e-08 0.0000000000000000e+00  1.0792913621419440e+00 4.8646671777383322e-04 0.0000000000000000e+00  1.0960041488282490e+00 -1.3230168664035338e-02 0.0000000000000000e+00  1.0858676991162002e+00 7.7858131473088187e-03 0.0000000000000000e+00  -6.9256268906517878e-06 -1.2026115837535668e-08 0.0000000000000000e+00  1.0810805023815502e+00 5.5330808643354237e-04 0.0000000000000000e+00  1.0824399953223061e+00 -2.7231197543036078e-05 0.0000000000000000e+00  -3.5965703418907630e-06 -2.3618977754773609e-07 0.0000000000000000e+00  -1.1479363788291039e-05 -1.2742208257111609e-08 0.0000000000000000e+00  -6.1694182192714172e-06 -1.0591554438740973e-07 0.0000000000000000e+00  6.4177252264037681e-07 -5.3679740302096952e-08 0.0000000000000000e+00  -4.3065820001436376e-06 -8.5332151076592032e-08 0.0000000000000000e+00  -6.6730995445256192e-07 2.2545738440207051e-08 0.0000000000000000e+00  2.5017083095721501e-09 4.2967334505207842e-08 0.0000000000000000e+00  -5.9450092442708658e-06 -5.8751880260520907e-07 0.0000000000000000e+00  2.3987725174224475e-06 -9.0165356550730941e-07 0.0000000000000000e+00  -1.4852585196536953e-05 3.9600004500329263e-07 0.0000000000000000e+00  9.8654855135812714e-06 2.3112997333043804e-06 0.0000000000000000e+00  -3.0210054334942006e-06 4.5291737332158851e-07 0.0000000000000000e+00  -7.7607047471391527e-07 -5.1564948282728211e-08 0.0000000000000000e+00  -7.7744749157211804e-06 1.3326759793799062e-07 0.0000000000000000e+00  -5.8762846075640881e-06 -1.0398852568515581e-07 0.0000000000000000e+00  -7.1406757757214205e-07 -8.1130530706737440e-09 0.0000000000000000e+00  -8.5531233529038031e-06 -8.7634252349197376e-09 0.0000000000000000e+00  -2.7095149685188540e-06 -3.0028969213489933e-08 0.0000000000000000e+00  -1.3896553359512340e-06 -2.3353632527962894e-07 0.0000000000000000e+00  1.0765245238327936e+00 5.9823428133994451e-04 0.0000000000000000e+00  1.0792553425850409e+00 -2.0350410274332545e-04 0.0000000000000000e+00  1.0796440656078741e+00 -5.1490381718113129e-04 0.0000000000000000e+00  1.0808726178224686e+00 -4.7350488285359408e-04 0.0000000000000000e+00  1.0824356121484848e+00 -7.1163990434914241e-06 0.0000000000000000e+00  1.0823561902858616e+00 -3.0523106342502443e-05 0.0000000000000000e+00  1.0796647294837480e+00 -7.9175594319916992e-04 0.0000000000000000e+00  1.0772019717305257e+00 8.1444679273599439e-04 0.0000000000000000e+00  8.2152702509124353e-01 1.1842072530760930e-01 0.0000000000000000e+00  1.2864122945276377e+00 1.0814020051812757e-01 0.0000000000000000e+00  7.7491599925887145e-01 3.9009337481632400e-01 0.0000000000000000e+00  1.0824798345291717e+00 1.2115071193594605e-04 0.0000000000000000e+00  1.0824820264424853e+00 5.9582404197651260e-05 0.0000000000000000e+00  1.0823993821306912e+00 5.2259953443896333e-05 0.0000000000000000e+00  1.0823297636428262e+00 -1.4282273192572231e-05 0.0000000000000000e+00  1.0777785617499658e+00 -8.3454855769526275e-04 0.0000000000000000e+00  1.0798243350732295e+00 -2.0302535029362618e-04 0.0000000000000000e+00  1.0784895070636238e+00 -1.0157784673102677e-03 0.0000000000000000e+00  1.0821175926129600e+00 -2.1171382937615237e-04 0.0000000000000000e+00  1.0827832527946100e+00 -5.4990714504106724e-04 0.0000000000000000e+00  1.0789234651714177e+00 -5.3011215202196675e-04 0.0000000000000000e+00  1.1801404764540755e+00 -2.5592902416247093e-01 0.0000000000000000e+00  1.0824175418814834e+00 -1.2555459061127373e-06 0.0000000000000000e+00  1.0823307154683885e+00 7.4892124787727142e-06 0.0000000000000000e+00  1.0824493319617112e+00 -2.4363308661534954e-05 0.0000000000000000e+00  1.0800655270072073e+00 1.8628334529443771e-04 0.0000000000000000e+00  1.0824076666503402e+00 -7.3442046873910697e-06 0.0000000000000000e+00  1.0822921293038801e+00 -6.3569339821459310e-06 0.0000000000000000e+00  1.0802880590183408e+00 4.5255565127428173e-04 0.0000000000000000e+00  1.0824385541889292e+00 4.3024607727629715e-05 0.0000000000000000e+00  1.0795474874173887e+00 -1.0513322858832412e-04 0.0000000000000000e+00  1.0831749424231782e+00 -2.8998561293976182e-03 0.0000000000000000e+00  6.5624834461162029e-01 4.7594181686579201e-07 0.0000000000000000e+00  1.0755298971123273e+00 -6.9865104178644670e-04 0.0000000000000000e+00  1.0799318671140463e+00 -8.0177632113136068e-04 0.0000000000000000e+00  1.0805107573471775e+00 1.3087101262252543e-01 0.0000000000000000e+00  1.0753539725685151e+00 1.0236860011948593e-03 0.0000000000000000e+00  1.0821370183041084e+00 -4.6657751855104827e-04 0.0000000000000000e+00  1.0822232326403654e+00 -6.1522407346038138e-05 0.0000000000000000e+00  1.0825169839949973e+00 -1.8472824820521617e-04 0.0000000000000000e+00  1.0822780255984379e+00 4.1484934496410699e-05 0.0000000000000000e+00  1.0824009657251699e+00 9.4379808007015082e-05 0.0000000000000000e+00  1.1230475146858296e+00 1.4558371550884094e-02 0.0000000000000000e+00  1.0733157852652009e+00 2.1124368354530393e-03 0.0000000000000000e+00  1.0719293749093917e+00 6.8308880916620126e-04 0.0000000000000000e+00  1.0823792299969626e+00 3.6088682640916858e-06 0.0000000000000000e+00  1.0823135184451917e+00 6.1690340153798995e-05 0.0000000000000000e+00  1.0813008931432253e+00 -5.9504244532157758e-03 0.0000000000000000e+00  1.0825401815569513e+00 4.0932396651067386e-04 0.0000000000000000e+00  1.0849212653853306e+00 -3.2571856663742146e-03 0.0000000000000000e+00  1.0772134208169009e+00 -3.5154936818186080e-04 0.0000000000000000e+00  1.0617693659461924e+00 -1.9013203305113107e-05 0.0000000000000000e+00  9.4093120366787364e-01 8.9895067554653596e-02 0.0000000000000000e+00  1.0627313480400324e+00 -1.7350063591933011e-03 0.0000000000000000e+00  1.0771166014972935e+00 2.7561563924005379e-03 0.0000000000000000e+00  1.0823104777021313e+00 5.1216213836479061e-05 0.0000000000000000e+00  1.0824970558984006e+00 -2.6572237108592937e-04 0.0000000000000000e+00  1.2247494837354260e+00 1.5837743706660939e-01 0.0000000000000000e+00  1.0793829227275731e+00 -9.5217118040411301e-06 0.0000000000000000e+00  1.0821080411207962e+00 -1.3232047440721428e-04 0.0000000000000000e+00  1.0823616185342240e+00 8.5284188897650755e-06 0.0000000000000000e+00  1.0824600845782197e+00 1.5892206042488911e-04 0.0000000000000000e+00  1.3573597056681066e+00 6.2758617364552169e-02 0.0000000000000000e+00  1.0822343432398747e+00 1.5963621945230511e-06 0.0000000000000000e+00  1.0822750818353855e+00 -2.0809618408677638e-06 0.0000000000000000e+00  1.0824778452027808e+00 1.4355220247298556e-04 0.0000000000000000e+00  1.0822626624230749e+00 -1.1175105714968784e-04 0.0000000000000000e+00  1.0591282786942420e+00 1.1973816073072850e-04 0.0000000000000000e+00  1.0585676524277412e+00 -1.6532013456595511e-04 0.0000000000000000e+00  1.0736112294252831e+00 -1.1129485512098478e-03 0.0000000000000000e+00  1.0776960353244271e+00 1.8674674867862144e-04 0.0000000000000000e+00  1.0794926418420925e+00 -5.1409341722910128e-04 0.0000000000000000e+00  1.0823588065830010e+00 -2.2392184043058779e-06 0.0000000000000000e+00  1.0646346628901859e+00 -4.6245979111395904e-04 0.0000000000000000e+00  1.0825034205317250e+00 2.0088580634206871e-05 0.0000000000000000e+00  1.0824686020043157e+00 1.5281942060407356e-05 0.0000000000000000e+00  1.1989827366272277e+00 -1.4223489518121685e-01 0.0000000000000000e+00  1.0823870177238619e+00 -6.8202243127251606e-06 0.0000000000000000e+00  1.0823798412699530e+00 -1.7614631504727123e-05 0.0000000000000000e+00  1.0819902927009124e+00 -4.7831331983465151e-04 0.0000000000000000e+00  1.0425090167948003e+00 5.8629621692442941e-04 0.0000000000000000e+00  1.0821892689617432e+00 7.6846560913503866e-05 0.0000000000000000e+00  1.0626392848930040e+00 -6.9144031888177776e-02 0.0000000000000000e+00  1.0743835656105711e+00 -3.3467316403081634e-04 0.0000000000000000e+00  7.3782060882787048e-01 -7.4015345301398278e-02 0.0000000000000000e+00  1.3613024163218328e+00 -7.0404628815755502e-02 0.0000000000000000e+00  1.0720345622189302e+00 7.1764281960685103e-04 0.0000000000000000e+00  1.0568263539532416e+00 -6.4260620213211106e-06 0.0000000000000000e+00  1.5386770356866109e+00 4.4961500556085610e-01 0.0000000000000000e+00  1.0166348669078651e+00 1.5466727198857230e-01 0.0000000000000000e+00  1.0698819707629890e+00 1.8952130951507024e-05 0.0000000000000000e+00  1.9020090898218880e+00 1.9452460330573693e-01 0.0000000000000000e+00  1.4855181060521214e+00 -4.9856471979962735e-01 0.0000000000000000e+00  9.9563785184512943e-01 -1.6631422793236381e-01 0.0000000000000000e+00  1.0687675841775304e+00 -2.0697052475200027e-04 0.0000000000000000e+00  1.0728200651140709e+00 -1.1721625605680571e-03 0.0000000000000000e+00  1.0663388456118141e+00 1.3385136562851965e-03 0.0000000000000000e+00  1.0744990663632916e+00 3.2781967716524919e-04 0.0000000000000000e+00  1.0824083580480190e+00 -1.1685052629589698e-05 0.0000000000000000e+00  1.0577222182289547e+00 -9.1032950729672459e-03 0.0000000000000000e+00  1.4062434655804512e+00 1.1023057765672065e-06 0.0000000000000000e+00  1.0826628135606793e+00 -6.3899316569046753e-05 0.0000000000000000e+00  1.0702296518621857e+00 -6.4126458993907199e-04 0.0000000000000000e+00  1.4062426343586152e+00 8.6137295884527459e-07 0.0000000000000000e+00  1.0717965641609366e+00 2.9763904043549385e-06 0.0000000000000000e+00  1.0822451851292538e+00 -1.3929453736745873e-04 0.0000000000000000e+00  1.0797776494376790e+00 1.1431229024900921e-01 0.0000000000000000e+00  1.0821891033399784e+00 1.2010028781093455e-05 0.0000000000000000e+00  7.2129246854535289e-01 7.5164843887975383e-02 0.0000000000000000e+00  1.0824873599761262e+00 6.7591411730447544e-05 0.0000000000000000e+00  1.0669392457767339e+00 6.6101207242692827e-04 0.0000000000000000e+00  1.0642481409795459e+00 -8.4700046355964519e-04 0.0000000000000000e+00  1.0191896419726136e+00 8.0768599119357529e-05 0.0000000000000000e+00  1.0824748480187274e+00 -7.5700956590989834e-05 0.0000000000000000e+00  1.0211208458619885e+00 -6.0746956280623492e-05 0.0000000000000000e+00  1.058