<?xml version="1.0"?>
<VTKFile type="UnstructuredGrid"  version="0.1"  >
<UnstructuredGrid>
<Piece  NumberOfPoints="2446" NumberOfCells="4585">
<Points>
<DataArray  type="Float64"  NumberOfComponents="3"  format="ascii">0 0.41 0  0 0 0  2.2 0 0  2.2 0.41 0  0.2404508497187474 0.2293892626146237 0  0.25 0.2 0  0.2404508497187474 0.1706107373853764 0  0.2154508497187474 0.1524471741852423 0  0.1845491502812526 0.1524471741852423 0  0.1595491502812526 0.1706107373853764 0  0.15 0.2 0  0.1595491502812526 0.2293892626146237 0  0.1845491502812527 0.2475528258147577 0  0.2154508497187474 0.2475528258147577 0  1.1 0 0  1.1 0.41 0  0 0.205 0  0.55 0 0  0.55 0.41 0  0.275 0 0  0.275 0.41 0  1.65 0.41 0  1.65 0 0  0.8250000000000001 0.41 0  0.8250000000000001 0 0  1.375 0 0  1.375 0.41 0  1.925 0 0  1.925 0.41 0  1.5125 0.205 0  1.7875 0.205 0  0.6875 0.205 0  0.9625000000000001 0.205 0  1.2375 0.205 0  2.2 0.205 0  0.4687002074688797 0.2068568464730291 0  1.99375 0.2152743902439024 0  2.0625 0 0  2.0625 0.41 0  2.2 0.3075 0  0.4125 0 0  0.4125 0.41 0  1.7875 0.41 0  1.375 0.1486128048780488 0  1.5125 0 0  1.7875 0 0  1.5125 0.41 0  0.8250000000000001 0.2613871951219511 0  0.9625000000000001 0.41 0  0.9625000000000001 0 0  0.6875 0.41 0  0.6875 0 0  0.1375 0 0  0.1375 0.41 0  1.2375 0 0  1.1 0.1486128048780487 0  1.2375 0.41 0  1.65 0.1486128048780487 0  1.126715909090909 0.2793064024390244 0  1.676715909090909 0.2793064024390244 0  0.8517159090909092 0.1306935975609756 0  1.348284090909091 0.2793064024390244 0  0.34375 0.3032389320646208 0  1.894702181800738 0.1282910975492754 0  2.092797818199262 0.1282910975492754 0  1.85625 0.3075 0  0.61875 0.3075 0  0.61875 0.1025 0  0.3648540804333487 0.1240075933101478 0  0 0.3075 0  0 0.1025 0  2.099172119769978 0.25625 0  0.48125 0.09238439620688085 0  0.5781001037344399 0.2059284232365146 0  0.48125 0.3196743479159776 0  0.7265881057911006 0.3055240343720796 0  1.99375 0.08395950269330846 0  1.459960956013612 0.3075 0  1.569025960719943 0.2986889805672169 0  0.75625 0.08213100772579164 0  1.03125 0.3278689922742084 0  0.923871252904788 0.3078247185783941 0  1.959375 0.3126371951219512 0  1.749222215368287 0.1025 0  1.275777784631713 0.1025 0  2.2 0.1025 0  1.225938124459196 0.3075 0  1.550777784631713 0.1025 0  1.000777784631713 0.1025 0  1.44375 0.07430640243902442 0  1.16875 0.07430640243902437 0  1.899250267340833 0.2229966846119207 0  0.1020898364287272 0.3140258291809757 0  1.766482954545455 0.2934032012195123 0  0.3405058858996321 0.2119987970531874 0  0.7710785630958338 0.1710968191298857 0  1.046078563095834 0.2389031808701144 0  0.2 0.3400647632937836 0  1.421109702350723 0.2261157654379721 0  0.2800464974185557 0.08982544815605742 0  0.098916018031319 0.09171660955420841 0  2.13125 0 0  2.118919042110979 0.3422084711244843 0  1.30625 0.41 0  0.89375 0 0  1.597888256393107 0.2173787389261347 0  0.20625 0 0  1.829299675393195 0.07400700849299596 0  1.71875 0.41 0  1.16875 0.41 0  2.038220665644273 0.332420740103091 0  0.34375 0 0  0.417496017710808 0.2696595573092803 0  0.2 0.07687845740457822 0  0.9295982307099278 0.1343158415898188 0  0.07390688010811153 0.1697064032433452 0  0.5238366813727013 0.2578302467013575 0  0.05452951551825875 0.25625 0  0.5229630068078351 0.1548816096928243 0  1.452769549894695 0.1548122580621249 0  1.369219062229598 0.07430640243902442 0  1.30625 0 0  0.8504409521244898 0.3356935975609756 0  0.8821881244591965 0.205 0  1.720943423819132 0.1714577452753128 0  1.157188124459196 0.205 0  1.094219062229598 0.07430640243902437 0  1.03125 0 0  1.304056576180868 0.1714577452753128 0  1.67579304192913 0.07430640243902437 0  0.2751941921308361 0.3346083473122598 0  1.209670467133757 0.1362100266964769 0  1.025335513626278 0.1700681449722324 0  0.7562500000000001 0.41 0  1.58125 0 0  0.7567170593862014 0.2409196493502535 0  0.6926714215682891 0.1272249611432207 0  0.4139715849905988 0.3397932387114203 0  0.9840787304190477 0.2717749043358119 0  0.06875000000000001 0.41 0  0 0.35875 0  0.9281250000000001 0.06276726142697993 0  0.5507396469029935 0.3219409231578227 0  0.5504468037989405 0.09136885600634273 0  1.58125 0.41 0  1.631724228912893 0.3381867502687533 0  1.825608881788174 0.14499488549201 0  1.85625 0 0  1.44375 0 0  1.44375 0.41 0  1.85625 0.41 0  2.13125 0.41 0  0.7562500000000001 0 0  0.89375 0.41 0  0.4812500000000001 0 0  0.34375 0.41 0  0.4812500000000001 0.41 0  0.20625 0.41 0  0.06875000000000001 0 0  1.16875 0 0  0.61875 0 0  0.61875 0.41 0  1.03125 0.41 0  1.71875 0 0  1.99375 0 0  1.99375 0.41 0  1.340625 0.3489494290853124 0  1.134375 0.3489494290853123 0  1.700180620188976 0.3438659752031281 0  2.135782184673599 0.07126652247502523 0  1.668441847249787 0.2129203728327609 0  1.295782514339747 0.2378437748815763 0  0.8233075729931248 0.06842334294821524 0  1.409375 0.3520314716057996 0  0.403505597322782 0.182067236678212 0  0.378125 0.05794951541303489 0  0.3043468223249023 0.1518321115979534 0  2.129248544730567 0.1906135162504124 0  2.060771381434487 0.1989445750470348 0  2.013252586573865 0.1496169464686054 0  1.942766402200229 0.1734448904596831 0  1.895522487186454 0.06076163953489683 0  2.069553871656643 0.06605731020975725 0  1.274680914880868 0.3520219391081363 0  1.614713220494657 0.09473434380863296 0  0.7899021319497519 0.3149123934144827 0  0.69518737419149 0.0634051089053758 0  0.2971740475496061 0.2592172353407536 0  1.72990325744076 0.2380068107952482 0  1.356580098625191 0.2120393231351682 0  2.034370752044885 0.2668681600792073 0  1.51768709249349 0.3426260931494756 0  1.561883724969884 0.1650446847858835 0  1.197344062229598 0.2523725417393646 0  1.804085235518364 0.3468178408964637 0  1.817887819205233 0.2589243285818559 0  1.905897727272727 0.3485060975609756 0  0.6719798073392919 0.2688965171178177 0  0 0.05125 0  0.653125 0.35875 0  0.6396896119294488 0.1627615407790282 0  0.4274150154087412 0.1242548552168279 0  1.192836486056382 0.3562350748565544 0  0.8279124365364005 0.183856489168822 0  1.097485222388854 0.2083571153401724 0  1.28257088594801 0.2944411014911587 0  1.474860187679412 0.2504218616229368 0  1.406767003493824 0.2829282258560709 0  0.446875 0.04619219810344041 0  0.515625 0.04585361801037557 0  0.592043440706648 0.05125 0  1.845656689180403 0.1998310418452388 0  2.144958525570388 0.2909790873294231 0  0.6171090763650112 0.2492366900333857 0  2.2 0.15375 0  0.5145586920831158 0.3648371739579888 0  1.57794966442982 0.3540357145964566 0  0.721875 0.3633107922168974 0  0.0496154796471391 0.333125 0  0.5843750000000001 0.3662560860076676 0  0.5810878747760798 0.1474002776121195 0  1.508991196088596 0.1421783375065625 0  0.8840670607017558 0.2640994375393898 0  0.09776612425612034 0.2204896805326566 0  1.50436820029908 0.06143401634903343 0  1.223857000523521 0.0823554862453532 0  1.153316824384777 0.1289850171317837 0  2.148922302309752 0.1258841779285271 0  0.309375 0.04312325590431198 0  1.621993280276081 0.2841214267927899 0  1.550118654119087 0.2461998729100966 0  1.327182649291491 0.1216967252533594 0  1.051977450479407 0.1221382572915816 0  1.753125 0.04556020050186112 0  1.271875 0.04556020050186116 0  0.9816084133102366 0.05126138213476004 0  1.039051841454368 0.0572224914831029 0  0.9719230514536006 0.3480477870845102 0  1.94956388244759 0.1180512551534177 0  1.949997712993411 0.04965831614304109 0  1.771961817615021 0.1530278789497521 0  1.909246823951428 0.2812757146784527 0  0.2459536687882397 0.04668633953831142 0  1.948575539857022 0.2445328248721197 0  1.697271520964565 0.1233917627620729 0  0.7964897648514618 0.1211426571931604 0  1.065625 0.3689344961371042 0  1.085849084308977 0.3170853572226867 0  0.4702981435440001 0.260434880697798 0  1.577403511714593 0.05463601888079143 0  0.05622663515370135 0.05493816910862376 0  0.3267207591099919 0.3566194660323104 0  0.9003051618565143 0.3564049499960621 0  1.751571320346033 0.3651102912045228 0  0.1583785085108421 0.2994699345738728 0  0.1455283439499995 0.3542795598723423 0  2.2 0.35875 0  0.2347662494194072 0.298325008655211 0  0.1527284455616188 0.1065771775690181 0  0.1382139529076665 0.05427454456341477 0  0.8749341636311069 0.05110114999892954 0  0.643661668713109 0.05693499781019222 0  1.466879772203159 0.3611261772912453 0  1.990280163552011 0.3564754268533217 0  1.17471064520912 0.2990917256188288 0  0.5202693090594349 0.206382495511728 0  0 0.25625 0  2.2 0.25625 0  2.2 0.05125 0  0 0.15375 0  1.853978576207987 0.35875 0  0.9787513713939683 0.1487523696999336 0  0.240625 0.3722153812029779 0  1.515638456102889 0.2882700110184686 0  0.09048297387599738 0.3637717362208066 0  2.150453692751374 0.2387066338105111 0  1.323782677156475 0.04897634338873398 0  0.8074131292871642 0.3624701995505916 0  1.409375 0.03715320121951221 0  1.406484531114799 0.1087852750766809 0  1.134375 0.03715320121951218 0  1.627401732573545 0.04552157221025036 0  0.1170173172005315 0.1427610859166811 0  2.045405893604797 0.1105340662939892 0  1.255408269734577 0.1577307500159216 0  2.028125 0.03707597992059326 0  0.4743610090857199 0.1421513964721819 0  0.9354010469015898 0.250631300585664 0  0.04420832937638274 0.128125 0  0.8922386349349938 0.0992956419364831 0  0.1197849154434487 0.2663398672460083 0  1.248258025468107 0.2565907092181813 0  0.3746885856929528 0.370723531618974 0  1.203125 0.0366132337404304 0  0.5724622277005015 0.2751253816079333 0  0.3365425205162783 0.08395777655057959 0  2.072662025974815 0.2975086504196739 0  0.4581080832182547 0.3648371739579888 0  0.3874522734668214 0.2295447548840689 0  0.7827853612484443 0.04106550386289586 0  1.887722846421017 0.1760882698830035 0  1.472640588990488 0.1118278026240017 0  1.865937103925594 0.2604137786483804 0  1.463913572748262 0.2030442564990043 0  1.376426316059077 0.3186741374914345 0  0.6641993820150034 0.3141688596240831 0  0.2943117490824315 0.2130987422685822 0  0.3478153998082709 0.1666571081082676 0  0.3427990510599805 0.2575950027870776 0  0.7997118993855807 0.2216171933356366 0  
[...]
<PointData  Vectors="f_31"> 
<DataArray  type="Float64"  Name="f_31"  NumberOfComponents="3" format="ascii">2.2066925393659882e-06 3.3188799861325549e-08 0.0000000000000000e+00  -2.2866488326102563e-06 -3.6221712636300486e-08 0.0000000000000000e+00  3.8057518949292886e-06 -2.5970896304267979e-09 0.0000000000000000e+00  -1.6315057094263110e-05 -7.8776545235674247e-09 0.0000000000000000e+00  -3.9275883926024341e-06 -4.2664336032914636e-06 0.0000000000000000e+00  -8.9694631524363306e-07 -1.3059012816573433e-05 0.0000000000000000e+00  1.3231387935654170e-06 -8.8388850957646082e-06 0.0000000000000000e+00  -5.2529201929433513e-06 4.1336590466291894e-06 0.0000000000000000e+00  -5.9248806351043417e-07 3.2049686459252246e-06 0.0000000000000000e+00  5.9376605431006119e-06 -2.4123504774654868e-06 0.0000000000000000e+00  2.8065913519816273e-07 -5.2844929390788366e-08 0.0000000000000000e+00  -1.3941110214882564e-05 -4.3111453832100821e-06 0.0000000000000000e+00  4.2786178269170903e-06 6.4657649144713421e-06 0.0000000000000000e+00  -1.3604281933119727e-05 3.1663426117637444e-07 0.0000000000000000e+00  -2.5351695184542753e-06 4.0756724874050281e-09 0.0000000000000000e+00  4.7434927150583745e-08 -6.2813985849403057e-09 0.0000000000000000e+00  1.5000043499711575e+00 -1.1964420354867439e-06 0.0000000000000000e+00  1.2120814246774609e-05 -6.1827836627576550e-07 0.0000000000000000e+00  7.4790145674992919e-06 6.8250485206664969e-07 0.0000000000000000e+00  2.0808506287349374e-06 2.6968887146105031e-07 0.0000000000000000e+00  -2.2462300511542384e-06 -6.2935056768746105e-08 0.0000000000000000e+00  3.9796208511388002e-07 -1.1837377593763753e-09 0.0000000000000000e+00  3.7408118496699979e-07 -1.1412849762880779e-08 0.0000000000000000e+00  1.3734443480481621e-06 4.8506554103467770e-08 0.0000000000000000e+00  -5.0090422427144998e-06 -5.3026572480265244e-09 0.0000000000000000e+00  -3.7793404268813787e-06 3.2013146954710615e-09 0.0000000000000000e+00  -7.0236511920813679e-07 1.6228153436831055e-08 0.0000000000000000e+00  -2.9071168527914449e-06 1.8204173449248892e-08 0.0000000000000000e+00  -2.2133709770103693e-06 -1.0856166547679885e-08 0.0000000000000000e+00  1.1368397938048671e+00 4.8689331793160222e-05 0.0000000000000000e+00  1.1369311412851799e+00 2.6907169577206625e-05 0.0000000000000000e+00  1.1779573865820352e+00 -4.1540451300597254e-02 0.0000000000000000e+00  1.1374790108303146e+00 -1.9244267113073159e-03 0.0000000000000000e+00  1.1365111005379513e+00 -9.8447784069495542e-05 0.0000000000000000e+00  1.1368059220574076e+00 -4.6683815785488783e-05 0.0000000000000000e+00  -1.7643907395568761e-01 -1.3146226369249131e-01 0.0000000000000000e+00  1.1367947358980637e+00 -5.2090711940580847e-05 0.0000000000000000e+00  3.1396354368825268e-07 9.0710145899089395e-09 0.0000000000000000e+00  -8.9090994273135152e-07 -1.3205570765522809e-08 0.0000000000000000e+00  1.1351010109870581e+00 -3.9940856396262249e-05 0.0000000000000000e+00  -2.4002272474641501e-06 1.8850533234095050e-07 0.0000000000000000e+00  3.3575444375812287e-06 -3.9189591941829677e-07 0.0000000000000000e+00  -5.9308191618993156e-06 -8.8908383562039859e-09 0.0000000000000000e+00  1.1366861858242809e+00 2.1769905221863374e-05 0.0000000000000000e+00  6.3026718088315687e-08 -5.5162763171711892e-09 0.0000000000000000e+00  -4.0850508796998799e-06 4.7855394000416347e-09 0.0000000000000000e+00  1.0918998552075363e-06 7.3083594083132111e-09 0.0000000000000000e+00  1.1484000449153577e+00 1.7214702032929195e-03 0.0000000000000000e+00  -1.6574720853237268e-06 -1.1667469691336408e-08 0.0000000000000000e+00  2.3987338071799148e-06 1.4894089931410306e-10 0.0000000000000000e+00  -7.7679822390733163e-06 -8.3178511306916524e-07 0.0000000000000000e+00  -1.8172507422761823e-05 9.8008995395589026e-07 0.0000000000000000e+00  -3.6854864993948630e-06 6.0001681772673361e-07 0.0000000000000000e+00  -5.6338208239004164e-06 -5.5945111933314328e-07 0.0000000000000000e+00  3.1354200447585883e-07 7.4209251614644421e-09 0.0000000000000000e+00  1.1364397626658735e+00 -4.3230542637184215e-04 0.0000000000000000e+00  -1.5232570731453016e-06 1.7666309321694635e-09 0.0000000000000000e+00  1.1369720257159053e+00 2.8388343121156345e-05 0.0000000000000000e+00  1.1368616499708328e+00 -1.9957733393744385e-04 0.0000000000000000e+00  1.1366134481702719e+00 1.1228582159102519e-04 0.0000000000000000e+00  1.1346252096125444e+00 -1.0815111535242944e-02 0.0000000000000000e+00  1.1366650148556128e+00 -1.2297366677573317e-05 0.0000000000000000e+00  2.0118630755377400e+00 -1.3916210202887663e-01 0.0000000000000000e+00  1.1367071011122429e+00 -9.7076948668702205e-05 0.0000000000000000e+00  1.1368200735580127e+00 -1.5710539672934859e-04 0.0000000000000000e+00  1.1348445313521147e+00 1.1593519653517820e-05 0.0000000000000000e+00  1.2393527496915406e+00 2.5701627087563659e-02 0.0000000000000000e+00  1.1873078966685291e+00 -4.1930507003867412e-02 0.0000000000000000e+00  1.5848404794897377e+00 1.5516737739426889e-01 0.0000000000000000e+00  1.1249989977183299e+00 -5.6804819135674265e-07 0.0000000000000000e+00  1.1249901844359353e+00 -2.0513520400108099e-07 0.0000000000000000e+00  1.1367083697435805e+00 -3.1231128144261911e-05 0.0000000000000000e+00  1.5613786357314487e+00 3.6176314058290315e-01 0.0000000000000000e+00  8.7342724949660400e-01 4.9252602508933901e-02 0.0000000000000000e+00  1.4500417639115597e+00 -2.4620339211446660e-01 0.0000000000000000e+00  1.1555628262152549e+00 7.1306767136399690e-02 0.0000000000000000e+00  1.1281094266261587e+00 3.0399968806799796e-05 0.0000000000000000e+00  1.1355050377116185e+00 -8.6378732716676482e-05 0.0000000000000000e+00  1.1359971296414799e+00 8.8242987481568236e-05 0.0000000000000000e+00  1.0975252190677849e+00 -4.4091988977797661e-02 0.0000000000000000e+00  1.1263155572774344e+00 2.5259413300367299e-06 0.0000000000000000e+00  1.1366877670756119e+00 5.5771403367297647e-04 0.0000000000000000e+00  1.1344320806778112e+00 -9.9288944531560667e-06 0.0000000000000000e+00  1.1346884665808072e+00 -2.5345966545397446e-04 0.0000000000000000e+00  1.1354574849339809e+00 -1.0963078568367314e-04 0.0000000000000000e+00  1.1349641219951303e+00 -2.7209422281650284e-04 0.0000000000000000e+00  1.1354567373893660e+00 -5.5292895542677062e-06 0.0000000000000000e+00  1.1353858845792553e+00 1.3328393214884519e-04 0.0000000000000000e+00  1.1342986252852163e+00 -1.0483151554327207e-03 0.0000000000000000e+00  1.1166762905037704e+00 3.9502137965987846e-05 0.0000000000000000e+00  1.1164077956070926e+00 2.5012131065298006e-05 0.0000000000000000e+00  1.1368311997119078e+00 -5.4537786066918123e-06 0.0000000000000000e+00  1.1916376203365640e+00 2.6135681500301500e-01 0.0000000000000000e+00  1.1361700075671577e+00 5.5105307971182751e-05 0.0000000000000000e+00  -5.5588315827417389e-01 2.0680562217656965e-02 0.0000000000000000e+00  1.1508464893339398e+00 -2.4622707339848546e-02 0.0000000000000000e+00  1.1371233630874678e+00 -6.3078138048382648e-04 0.0000000000000000e+00  1.4098007371617227e+00 2.2909896830486864e-01 0.0000000000000000e+00  1.1365883620993500e+00 -2.6687950671100392e-05 0.0000000000000000e+00  1.8742960072784540e+00 -1.1387814502415890e-01 0.0000000000000000e+00  1.1366875197134216e+00 -2.4301449584776366e-01 0.0000000000000000e+00  -5.6523105613257178e-07 1.0382639369044281e-08 0.0000000000000000e+00  1.1019429273543335e+00 1.6624193899694270e-04 0.0000000000000000e+00  -1.8227442597290659e-06 4.2344990747903394e-10 0.0000000000000000e+00  -6.6154547762437395e-06 3.7562424720583189e-08 0.0000000000000000e+00  1.1369248359769999e+00 3.6912452802931633e-05 0.0000000000000000e+00  1.4909659200211333e-06 -4.6227302380363466e-07 0.0000000000000000e+00  1.1157828091969302e+00 1.7207373295072540e-05 0.0000000000000000e+00  -2.5825310198994256e-06 -1.0674240869381383e-09 0.0000000000000000e+00  -2.0458798707527237e-06 -2.5044203541555606e-09 0.0000000000000000e+00  1.1215469632438382e+00 8.0218805012024939e-06 0.0000000000000000e+00  -2.9900298553669073e-06 7.3119833219511168e-08 0.0000000000000000e+00  1.6883507669031248e+00 -4.6042454846461761e-01 0.0000000000000000e+00  1.5139676025010209e+00 -2.8039303160138107e-01 0.0000000000000000e+00  1.1353724841762123e+00 -3.6519660103804088e-03 0.0000000000000000e+00  1.3345072356050480e+00 -9.5293197543482741e-02 0.0000000000000000e+00  1.4645800344423552e+00 -2.5032246667617314e-01 0.0000000000000000e+00  1.3746773973623343e+00 1.3446624599600354e-01 0.0000000000000000e+00  1.3655907465273773e+00 4.1174947839557957e-01 0.0000000000000000e+00  1.1366735764451978e+00 7.0549369281264616e-05 0.0000000000000000e+00  1.1157519379960585e+00 -9.8418312781775840e-05 0.0000000000000000e+00  -6.1030384280249687e-07 4.4723016338549164e-11 0.0000000000000000e+00  1.1144131753024353e+00 4.7019517513896773e-03 0.0000000000000000e+00  1.1404234148172654e+00 -4.4713050273958938e-03 0.0000000000000000e+00  1.1368288115129219e+00 5.6676022576175261e-05 0.0000000000000000e+00  1.1365055809863651e+00 -2.2117802733257087e-04 0.0000000000000000e+00  1.1162621895650640e+00 -1.6337334834270049e-04 0.0000000000000000e+00  -2.9503152188694635e-06 9.4526664561131963e-09 0.0000000000000000e+00  1.1366265423576107e+00 -2.9889907084509171e-05 0.0000000000000000e+00  1.1159464123514811e+00 -1.3280296729944050e-04 0.0000000000000000e+00  1.6707345551496324e+00 6.9740981134099975e-02 0.0000000000000000e+00  1.1366412836788322e+00 -8.9322529070502913e-05 0.0000000000000000e+00  1.1364995817600552e+00 -1.1009187461416623e-03 0.0000000000000000e+00  -5.9889069585849868e-06 1.1495371380317282e-07 0.0000000000000000e+00  -1.3197373874883722e-05 -1.1525191139318242e-08 0.0000000000000000e+00  1.1754940943544638e+00 -2.0274320330545678e-03 0.0000000000000000e+00  1.1923851090208077e+00 -1.3051906281417988e-01 0.0000000000000000e+00  1.4874958530194333e+00 -2.2387297905111697e-01 0.0000000000000000e+00  1.1378220681272886e+00 -5.7794671484476506e-04 0.0000000000000000e+00  -3.1755538084259194e-06 -3.3322290178743910e-07 0.0000000000000000e+00  6.5625068367360395e-01 -1.9209431684631599e-07 0.0000000000000000e+00  1.0823021259903489e+00 -1.2197471545107820e-03 0.0000000000000000e+00  1.2557224472503996e+00 -8.4100796177941362e-02 0.0000000000000000e+00  1.2863042099483364e+00 1.5416111121480827e-01 0.0000000000000000e+00  -4.7726221999498547e-06 7.0202138209394581e-09 0.0000000000000000e+00  1.1119669822911238e+00 3.2393024636146812e-04 0.0000000000000000e+00  1.1368386968104665e+00 8.5457935398341089e-06 0.0000000000000000e+00  -3.4998627451380935e-06 1.1802074626340719e-08 0.0000000000000000e+00  -1.0340120645108323e-05 5.5280759869617395e-09 0.0000000000000000e+00  -4.2351443369570212e-06 -3.2054002018460968e-08 0.0000000000000000e+00  1.6721042827845902e-06 1.6071923459019435e-08 0.0000000000000000e+00  -2.3000398303160694e-06 2.6096787721207436e-09 0.0000000000000000e+00  -5.6216723691250313e-06 -1.3999930544210933e-07 0.0000000000000000e+00  1.0870537536806295e-06 -1.1520672694996868e-08 0.0000000000000000e+00  6.9936661161681470e-06 -1.3090410028642503e-06 0.0000000000000000e+00  8.6009315788016948e-06 -5.5069168995286135e-07 0.0000000000000000e+00  8.5234367745498906e-07 7.7900829793266502e-07 0.0000000000000000e+00  -3.4692955808091439e-06 -3.1294215072645168e-07 0.0000000000000000e+00  1.0525836294200975e-06 1.0563007153812662e-07 0.0000000000000000e+00  -1.7721645791474355e-07 -2.6149794861253181e-09 0.0000000000000000e+00  -5.0895409248934579e-06 1.7128857927170518e-06 0.0000000000000000e+00  -4.7131276084966053e-06 -4.3439703132252299e-07 0.0000000000000000e+00  -8.9717148354483919e-07 -3.9143078009709678e-09 0.0000000000000000e+00  -7.4494986190862319e-06 -6.4955787369512850e-09 0.0000000000000000e+00  -2.1219957018683694e-06 -6.7093383386988759e-09 0.0000000000000000e+00  -6.2563863555148881e-07 1.7523047318401216e-08 0.0000000000000000e+00  1.0779520698704235e+00 1.6941150239463759e-04 0.0000000000000000e+00  1.0788027461342127e+00 1.3511960727408421e-05 0.0000000000000000e+00  1.0970061881447977e+00 1.4929102300002657e-04 0.0000000000000000e+00  1.1100194022783783e+00 -2.8230696653450528e-04 0.0000000000000000e+00  1.1369113754509783e+00 7.0974132387867381e-05 0.0000000000000000e+00  1.1365788841731743e+00 -4.0446661091490726e-05 0.0000000000000000e+00  1.0881240343068932e+00 -1.0869968817247959e-02 0.0000000000000000e+00  1.0643590961722402e+00 -7.7964161274250235e-05 0.0000000000000000e+00  -4.7175572861095094e-01 -2.5385578583014361e-02 0.0000000000000000e+00  1.5637070986015185e+00 1.5949309758715902e-01 0.0000000000000000e+00  2.8371840902523165e-01 -1.3392405737279947e-01 0.0000000000000000e+00  1.1367504087491647e+00 -4.4288951191391040e-05 0.0000000000000000e+00  1.1368660337053285e+00 -5.0854212271485096e-05 0.0000000000000000e+00  1.1369263040510669e+00 -7.1138132525884861e-05 0.0000000000000000e+00  1.1368350096364050e+00 -5.1491985194972483e-05 0.0000000000000000e+00  1.0765467683428607e+00 -9.4898830658779091e-05 0.0000000000000000e+00  1.0966589911065856e+00 -2.8745254078125159e-04 0.0000000000000000e+00  1.0649543747515164e+00 9.6944049977680779e-05 0.0000000000000000e+00  1.1335410578591907e+00 7.8608458442683765e-06 0.0000000000000000e+00  1.1382766489812388e+00 1.9961543488387769e-02 0.0000000000000000e+00  9.8673379824705187e-01 -9.2109104781998255e-02 0.0000000000000000e+00  7.3858561567841274e-01 8.1928868362808452e-02 0.0000000000000000e+00  1.1367950591128355e+00 3.8972466480267119e-05 0.0000000000000000e+00  1.1365081991627253e+00 -4.0850038874989792e-05 0.0000000000000000e+00  1.1367569105770752e+00 -6.6794286625631032e-06 0.0000000000000000e+00  1.1009475938520632e+00 8.3964117728241541e-05 0.0000000000000000e+00  1.1368828667696880e+00 8.4854535111423011e-05 0.0000000000000000e+00  1.1367018997916880e+00 -9.7054150060977366e-05 0.0000000000000000e+00  1.0878310944417373e+00 -8.3477013556003570e-05 0.0000000000000000e+00  1.1366930656414183e+00 6.8540936351937851e-06 0.0000000000000000e+00  1.0808349895251530e+00 1.4895344005696324e-04 0.0000000000000000e+00  1.3272945432136494e+00 3.7591516746500693e-02 0.0000000000000000e+00  6.5624823909397867e-01 -2.5495294920953498e-07 0.0000000000000000e+00  8.6149120478752605e-01 8.0968977960871380e-02 0.0000000000000000e+00  1.2858230456286663e+00 2.4399644491149542e-03 0.0000000000000000e+00  1.7724949764691331e+00 4.3911019354873576e-01 0.0000000000000000e+00  1.0405674451823592e+00 1.3331016522356154e-05 0.0000000000000000e+00  1.1434209792562442e+00 -1.1004479689740040e-02 0.0000000000000000e+00  1.1365868064099935e+00 -4.6510223681625818e-04 0.0000000000000000e+00  1.1365045766903028e+00 -2.5518133245584534e-06 0.0000000000000000e+00  1.1366415567238757e+00 -2.4440038317734981e-05 0.0000000000000000e+00  1.1366422155377984e+00 -8.3071414637349484e-05 0.0000000000000000e+00  1.1395874102776462e+00 1.8057188192007267e-01 0.0000000000000000e+00  8.0066326471723881e-01 8.8793454658092630e-02 0.0000000000000000e+00  7.6101053115353301e-01 -5.4751684572010940e-02 0.0000000000000000e+00  1.1368885664655648e+00 -1.3855902678161354e-06 0.0000000000000000e+00  1.1364276202253281e+00 -3.7591109347278261e-05 0.0000000000000000e+00  1.4206687231687509e+00 -6.8657410225182847e-02 0.0000000000000000e+00  1.1366236478439609e+00 -2.0739352283091217e-05 0.0000000000000000e+00  7.9689249690286634e-01 -5.5795824883493030e-02 0.0000000000000000e+00  1.0543517081119749e+00 1.4206634706734174e-04 0.0000000000000000e+00  9.2548709861338940e-01 4.0279771160794925e-02 0.0000000000000000e+00  9.4280441215954169e-01 9.6691651908366802e-02 0.0000000000000000e+00  7.0859106632561863e-01 3.4391398739119734e-02 0.0000000000000000e+00  1.4026650055162802e+00 1.7093972602477447e-01 0.0000000000000000e+00  1.1368050401610641e+00 1.3018089036424406e-04 0.0000000000000000e+00  1.1411506654799577e+00 -1.7109945963302901e-04 0.0000000000000000e+00  1.2253532338086250e+00 1.8418506680540089e-01 0.0000000000000000e+00  1.0810026108211315e+00 5.1395793829107061e-05 0.0000000000000000e+00  1.1263492365835439e+00 -1.6728164968239940e-04 0.0000000000000000e+00  1.1365867131675298e+00 -1.6535498888989685e-04 0.0000000000000000e+00  1.1367166796579808e+00 -1.9787036029126834e-04 0.0000000000000000e+00  1.4083140867843218e+00 1.9181072884926126e-02 0.0000000000000000e+00  1.1366061448001508e+00 7.9222400852683764e-05 0.0000000000000000e+00  1.1366565459368663e+00 4.9095662855708637e-06 0.0000000000000000e+00  1.1365657639263680e+00 -3.0847128188940973e-05 0.0000000000000000e+00  1.1360187293960720e+00 -7.0943128570227483e-04 0.0000000000000000e+00  9.7517201760516115e-01 -1.2710673072500650e-04 0.0000000000000000e+00  9.7486814251420228e-01 -3.3909881841179843e-04 0.0000000000000000e+00  1.0237978091530400e+00 -5.3704401295514030e-04 0.0000000000000000e+00  1.0596316634460248e+00 -2.2226311676355290e-04 0.0000000000000000e+00  1.0827673354416378e+00 2.4576818774183965e-04 0.0000000000000000e+00  1.1364652167233029e+00 -7.0183368850123610e-05 0.0000000000000000e+00  1.0094936754550061e+00 -5.5007245377984421e-05 0.0000000000000000e+00  1.1369060610631907e+00 2.4807228163521146e-05 0.0000000000000000e+00  1.1366359589381587e+00 -4.8387765549361590e-06 0.0000000000000000e+00  1.3379318858409510e+00 -9.4356989955061282e-02 0.0000000000000000e+00  1.1368193772379120e+00 -3.3848751100394681e-05 0.0000000000000000e+00  1.1367340696043651e+00 -5.1536157422344043e-05 0.0000000000000000e+00  1.1333114315279456e+00 -2.4859639915803734e-02 0.0000000000000000e+00  9.2564142560349050e-01 -1.4859852217871604e-04 0.0000000000000000e+00  1.1335470860934325e+00 -1.6370252083793634e-04 0.0000000000000000e+00  1.4820961626792464e+00 -4.3891422914235695e-01 0.0000000000000000e+00  1.0449894117062528e+00 2.4440872678307735e-04 0.0000000000000000e+00  7.3688956053265997e-01 -7.6237333375457628e-02 0.0000000000000000e+00  1.4478712780001264e+00 -6.1040030263835157e-02 0.0000000000000000e+00  1.0383578813898269e+00 8.8718206530886609e-04 0.0000000000000000e+00  9.6802153230012045e-01 2.8794398307455187e-05 0.0000000000000000e+00  1.5432819772828739e+00 4.7911010179817598e-01 0.0000000000000000e+00  1.0125583138435572e+00 1.8236038777587127e-01 0.0000000000000000e+00  1.0227256110921712e+00 1.7562221485829967e-04 0.0000000000000000e+00  1.9267635372166247e+00 2.4806771407051645e-01 0.0000000000000000e+00  1.4490210237921437e+00 -5.0524561477407659e-01 0.0000000000000000e+00  9.7082321992854437e-01 -1.8917059527257560e-01 0.0000000000000000e+00  1.0163363359046176e+00 -2.3929865979403944e-03 0.0000000000000000e+00  8.5076959834242116e-01 -1.0886876112063384e-01 0.0000000000000000e+00  1.0046028957283375e+00 9.7630423116384240e-05 0.0000000000000000e+00  1.0394053579595650e+00 2.8047043401942563e-05 0.0000000000000000e+00  1.1363324441777096e+00 -5.7764860252447996e-05 0.0000000000000000e+00  3.8428154621001326e-01 1.7870859105069338e-02 0.0000000000000000e+00  1.4062434590136899e+00 -1.1712910382448065e-06 0.0000000000000000e+00  1.1368356877436772e+00 2.8670692411309548e-05 0.0000000000000000e+00  1.0237196239490376e+00 -7.0717588056593038e-04 0.0000000000000000e+00  1.4062431227730225e+00 -9.5027739225848933e-07 0.0000000000000000e+00  1.0234873111235165e+00 -2.2497147151466645e-05 0.0000000000000000e+00  1.1360869868820465e+00 -1.9338432989333091e-03 0.0000000000000000e+00  1.1496722803743189e+00 5.8287734035737004e-02 0.0000000000000000e+00  1.1366488244001403e+00 -1.3704045866752824e-05 0.0000000000000000e+00  7.1800276806492680e-01 1.0108782731879232e-01 0.0000000000000000e+00  1.1367078695243333e+00 -1.3243955662313802e-05 0.0000000000000000e+00  1.0058526947536011e+00 -1.8783067102477030e-04 0.0000000000000000e+00  9.8317464353939188e-01 7.9286968952731844e-03 0.0000000000000000e+00  8.7517658206368953e-01 1.0162283428917806e-04 0.0000000000000000e+00  1.1361167526852385e+00 3.4560433633160583e-05 0.0000000000000000e+00  8.7586893408840072e-01 6.1138610882044368e-05 0.0000000000000000e+00  9.7330215724