<?xml version="1.0"?>
<VTKFile type="UnstructuredGrid"  version="0.1"  >
<UnstructuredGrid>
<Piece  NumberOfPoints="2446" NumberOfCells="4585">
<Points>
<DataArray  type="Float64"  NumberOfComponents="3"  format="ascii">0 0.41 0  0 0 0  2.2 0 0  2.2 0.41 0  0.2404508497187474 0.2293892626146237 0  0.25 0.2 0  0.2404508497187474 0.1706107373853764 0  0.2154508497187474 0.1524471741852423 0  0.1845491502812526 0.1524471741852423 0  0.1595491502812526 0.1706107373853764 0  0.15 0.2 0  0.1595491502812526 0.2293892626146237 0  0.1845491502812527 0.2475528258147577 0  0.2154508497187474 0.2475528258147577 0  1.1 0 0  1.1 0.41 0  0 0.205 0  0.55 0 0  0.55 0.41 0  0.275 0 0  0.275 0.41 0  1.65 0.41 0  1.65 0 0  0.8250000000000001 0.41 0  0.8250000000000001 0 0  1.375 0 0  1.375 0.41 0  1.925 0 0  1.925 0.41 0  1.5125 0.205 0  1.7875 0.205 0  0.6875 0.205 0  0.9625000000000001 0.205 0  1.2375 0.205 0  2.2 0.205 0  0.4687002074688797 0.2068568464730291 0  1.99375 0.2152743902439024 0  2.0625 0 0  2.0625 0.41 0  2.2 0.3075 0  0.4125 0 0  0.4125 0.41 0  1.7875 0.41 0  1.375 0.1486128048780488 0  1.5125 0 0  1.7875 0 0  1.5125 0.41 0  0.8250000000000001 0.2613871951219511 0  0.9625000000000001 0.41 0  0.9625000000000001 0 0  0.6875 0.41 0  0.6875 0 0  0.1375 0 0  0.1375 0.41 0  1.2375 0 0  1.1 0.1486128048780487 0  1.2375 0.41 0  1.65 0.1486128048780487 0  1.126715909090909 0.2793064024390244 0  1.676715909090909 0.2793064024390244 0  0.8517159090909092 0.1306935975609756 0  1.348284090909091 0.2793064024390244 0  0.34375 0.3032389320646208 0  1.894702181800738 0.1282910975492754 0  2.092797818199262 0.1282910975492754 0  1.85625 0.3075 0  0.61875 0.3075 0  0.61875 0.1025 0  0.3648540804333487 0.1240075933101478 0  0 0.3075 0  0 0.1025 0  2.099172119769978 0.25625 0  0.48125 0.09238439620688085 0  0.5781001037344399 0.2059284232365146 0  0.48125 0.3196743479159776 0  0.7265881057911006 0.3055240343720796 0  1.99375 0.08395950269330846 0  1.459960956013612 0.3075 0  1.569025960719943 0.2986889805672169 0  0.75625 0.08213100772579164 0  1.03125 0.3278689922742084 0  0.923871252904788 0.3078247185783941 0  1.959375 0.3126371951219512 0  1.749222215368287 0.1025 0  1.275777784631713 0.1025 0  2.2 0.1025 0  1.225938124459196 0.3075 0  1.550777784631713 0.1025 0  1.000777784631713 0.1025 0  1.44375 0.07430640243902442 0  1.16875 0.07430640243902437 0  1.899250267340833 0.2229966846119207 0  0.1020898364287272 0.3140258291809757 0  1.766482954545455 0.2934032012195123 0  0.3405058858996321 0.2119987970531874 0  0.7710785630958338 0.1710968191298857 0  1.046078563095834 0.2389031808701144 0  0.2 0.3400647632937836 0  1.421109702350723 0.2261157654379721 0  0.2800464974185557 0.08982544815605742 0  0.098916018031319 0.09171660955420841 0  2.13125 0 0  2.118919042110979 0.3422084711244843 0  1.30625 0.41 0  0.89375 0 0  1.597888256393107 0.2173787389261347 0  0.20625 0 0  1.829299675393195 0.07400700849299596 0  1.71875 0.41 0  1.16875 0.41 0  2.038220665644273 0.332420740103091 0  0.34375 0 0  0.417496017710808 0.2696595573092803 0  0.2 0.07687845740457822 0  0.9295982307099278 0.1343158415898188 0  0.07390688010811153 0.1697064032433452 0  0.5238366813727013 0.2578302467013575 0  0.05452951551825875 0.25625 0  0.5229630068078351 0.1548816096928243 0  1.452769549894695 0.1548122580621249 0  1.369219062229598 0.07430640243902442 0  1.30625 0 0  0.8504409521244898 0.3356935975609756 0  0.8821881244591965 0.205 0  1.720943423819132 0.1714577452753128 0  1.157188124459196 0.205 0  1.094219062229598 0.07430640243902437 0  1.03125 0 0  1.304056576180868 0.1714577452753128 0  1.67579304192913 0.07430640243902437 0  0.2751941921308361 0.3346083473122598 0  1.209670467133757 0.1362100266964769 0  1.025335513626278 0.1700681449722324 0  0.7562500000000001 0.41 0  1.58125 0 0  0.7567170593862014 0.2409196493502535 0  0.6926714215682891 0.1272249611432207 0  0.4139715849905988 0.3397932387114203 0  0.9840787304190477 0.2717749043358119 0  0.06875000000000001 0.41 0  0 0.35875 0  0.9281250000000001 0.06276726142697993 0  0.5507396469029935 0.3219409231578227 0  0.5504468037989405 0.09136885600634273 0  1.58125 0.41 0  1.631724228912893 0.3381867502687533 0  1.825608881788174 0.14499488549201 0  1.85625 0 0  1.44375 0 0  1.44375 0.41 0  1.85625 0.41 0  2.13125 0.41 0  0.7562500000000001 0 0  0.89375 0.41 0  0.4812500000000001 0 0  0.34375 0.41 0  0.4812500000000001 0.41 0  0.20625 0.41 0  0.06875000000000001 0 0  1.16875 0 0  0.61875 0 0  0.61875 0.41 0  1.03125 0.41 0  1.71875 0 0  1.99375 0 0  1.99375 0.41 0  1.340625 0.3489494290853124 0  1.134375 0.3489494290853123 0  1.700180620188976 0.3438659752031281 0  2.135782184673599 0.07126652247502523 0  1.668441847249787 0.2129203728327609 0  1.295782514339747 0.2378437748815763 0  0.8233075729931248 0.06842334294821524 0  1.409375 0.3520314716057996 0  0.403505597322782 0.182067236678212 0  0.378125 0.05794951541303489 0  0.3043468223249023 0.1518321115979534 0  2.129248544730567 0.1906135162504124 0  2.060771381434487 0.1989445750470348 0  2.013252586573865 0.1496169464686054 0  1.942766402200229 0.1734448904596831 0  1.895522487186454 0.06076163953489683 0  2.069553871656643 0.06605731020975725 0  1.274680914880868 0.3520219391081363 0  1.614713220494657 0.09473434380863296 0  0.7899021319497519 0.3149123934144827 0  0.69518737419149 0.0634051089053758 0  0.2971740475496061 0.2592172353407536 0  1.72990325744076 0.2380068107952482 0  1.356580098625191 0.2120393231351682 0  2.034370752044885 0.2668681600792073 0  1.51768709249349 0.3426260931494756 0  1.561883724969884 0.1650446847858835 0  1.197344062229598 0.2523725417393646 0  1.804085235518364 0.3468178408964637 0  1.817887819205233 0.2589243285818559 0  1.905897727272727 0.3485060975609756 0  0.6719798073392919 0.2688965171178177 0  0 0.05125 0  0.653125 0.35875 0  0.6396896119294488 0.1627615407790282 0  0.4274150154087412 0.1242548552168279 0  1.192836486056382 0.3562350748565544 0  0.8279124365364005 0.183856489168822 0  1.097485222388854 0.2083571153401724 0  1.28257088594801 0.2944411014911587 0  1.474860187679412 0.2504218616229368 0  1.406767003493824 0.2829282258560709 0  0.446875 0.04619219810344041 0  0.515625 0.04585361801037557 0  0.592043440706648 0.05125 0  1.845656689180403 0.1998310418452388 0  2.144958525570388 0.2909790873294231 0  0.6171090763650112 0.2492366900333857 0  2.2 0.15375 0  0.5145586920831158 0.3648371739579888 0  1.57794966442982 0.3540357145964566 0  0.721875 0.3633107922168974 0  0.0496154796471391 0.333125 0  0.5843750000000001 0.3662560860076676 0  0.5810878747760798 0.1474002776121195 0  1.508991196088596 0.1421783375065625 0  0.8840670607017558 0.2640994375393898 0  0.09776612425612034 0.2204896805326566 0  1.50436820029908 0.06143401634903343 0  1.223857000523521 0.0823554862453532 0  1.153316824384777 0.1289850171317837 0  2.148922302309752 0.1258841779285271 0  0.309375 0.04312325590431198 0  1.621993280276081 0.2841214267927899 0  1.550118654119087 0.2461998729100966 0  1.327182649291491 0.1216967252533594 0  1.051977450479407 0.1221382572915816 0  1.753125 0.04556020050186112 0  1.271875 0.04556020050186116 0  0.9816084133102366 0.05126138213476004 0  1.039051841454368 0.0572224914831029 0  0.9719230514536006 0.3480477870845102 0  1.94956388244759 0.1180512551534177 0  1.949997712993411 0.04965831614304109 0  1.771961817615021 0.1530278789497521 0  1.909246823951428 0.2812757146784527 0  0.2459536687882397 0.04668633953831142 0  1.948575539857022 0.2445328248721197 0  1.697271520964565 0.1233917627620729 0  0.7964897648514618 0.1211426571931604 0  1.065625 0.3689344961371042 0  1.085849084308977 0.3170853572226867 0  0.4702981435440001 0.260434880697798 0  1.577403511714593 0.05463601888079143 0  0.05622663515370135 0.05493816910862376 0  0.3267207591099919 0.3566194660323104 0  0.9003051618565143 0.3564049499960621 0  1.751571320346033 0.3651102912045228 0  0.1583785085108421 0.2994699345738728 0  0.1455283439499995 0.3542795598723423 0  2.2 0.35875 0  0.2347662494194072 0.298325008655211 0  0.1527284455616188 0.1065771775690181 0  0.1382139529076665 0.05427454456341477 0  0.8749341636311069 0.05110114999892954 0  0.643661668713109 0.05693499781019222 0  1.466879772203159 0.3611261772912453 0  1.990280163552011 0.3564754268533217 0  1.17471064520912 0.2990917256188288 0  0.5202693090594349 0.206382495511728 0  0 0.25625 0  2.2 0.25625 0  2.2 0.05125 0  0 0.15375 0  1.853978576207987 0.35875 0  0.9787513713939683 0.1487523696999336 0  0.240625 0.3722153812029779 0  1.515638456102889 0.2882700110184686 0  0.09048297387599738 0.3637717362208066 0  2.150453692751374 0.2387066338105111 0  1.323782677156475 0.04897634338873398 0  0.8074131292871642 0.3624701995505916 0  1.409375 0.03715320121951221 0  1.406484531114799 0.1087852750766809 0  1.134375 0.03715320121951218 0  1.627401732573545 0.04552157221025036 0  0.1170173172005315 0.1427610859166811 0  2.045405893604797 0.1105340662939892 0  1.255408269734577 0.1577307500159216 0  2.028125 0.03707597992059326 0  0.4743610090857199 0.1421513964721819 0  0.9354010469015898 0.250631300585664 0  0.04420832937638274 0.128125 0  0.8922386349349938 0.0992956419364831 0  0.1197849154434487 0.2663398672460083 0  1.248258025468107 0.2565907092181813 0  0.3746885856929528 0.370723531618974 0  1.203125 0.0366132337404304 0  0.5724622277005015 0.2751253816079333 0  0.3365425205162783 0.08395777655057959 0  2.072662025974815 0.2975086504196739 0  0.4581080832182547 0.3648371739579888 0  0.3874522734668214 0.2295447548840689 0  0.7827853612484443 0.04106550386289586 0  1.887722846421017 0.1760882698830035 0  1.472640588990488 0.1118278026240017 0  1.865937103925594 0.2604137786483804 0  1.463913572748262 0.2030442564990043 0  1.376426316059077 0.3186741374914345 0  0.6641993820150034 0.3141688596240831 0  0.2943117490824315 0.2130987422685822 0  0.3478153998082709 0.1666571081082676 0  0.3427990510599805 0.2575950027870776 0  0.7997118993855807 0.2216171933356366 0  
[...]
<PointData  Vectors="f_31"> 
<DataArray  type="Float64"  Name="f_31"  NumberOfComponents="3" format="ascii">-4.8664729604247549e-07 -1.6232892881861612e-06 0.0000000000000000e+00  -4.8884716272411075e-06 1.8378619767548861e-06 0.0000000000000000e+00  4.7156435307750499e-06 -3.3441667410333212e-08 0.0000000000000000e+00  -1.9070163362209386e-05 3.0097075536103065e-07 0.0000000000000000e+00  5.3471680322149070e-05 -1.2789904979795582e-05 0.0000000000000000e+00  4.5379377131687465e-05 -2.1789498254928460e-05 0.0000000000000000e+00  4.1711357090770982e-05 -1.1465817372583708e-05 0.0000000000000000e+00  8.8174059784321265e-05 -4.2682022596289581e-05 0.0000000000000000e+00  3.9381257370945121e-06 -1.9037571566833401e-05 0.0000000000000000e+00  -2.4750207058972417e-06 3.2873420400445394e-06 0.0000000000000000e+00  4.8413429047575468e-06 7.6571047252791804e-06 0.0000000000000000e+00  1.3312131020681969e-05 -5.9332890765632534e-06 0.0000000000000000e+00  2.4395607693406446e-05 5.4490310458427136e-06 0.0000000000000000e+00  2.9758764985723444e-05 2.1414228733309212e-05 0.0000000000000000e+00  -4.1005984219481791e-06 2.0190757208514925e-08 0.0000000000000000e+00  -7.9964790361678796e-07 3.3375018224779904e-08 0.0000000000000000e+00  1.5000037617224673e+00 1.1443851714300049e-06 0.0000000000000000e+00  -7.8371855116724499e-06 -1.3861575744983413e-07 0.0000000000000000e+00  2.7533301664109642e-06 9.3702981835317885e-08 0.0000000000000000e+00  8.7330599336122173e-06 3.3354800550257543e-06 0.0000000000000000e+00  -1.2632318759018526e-06 -8.0610823231530209e-07 0.0000000000000000e+00  -1.4201665203490505e-06 -3.5221615144886793e-07 0.0000000000000000e+00  -2.0084360779376879e-06 2.1678994141632643e-07 0.0000000000000000e+00  1.3625388113321381e-06 1.4168085197936924e-08 0.0000000000000000e+00  -6.9856179562313535e-06 2.4074909583960736e-07 0.0000000000000000e+00  -3.9964598794636053e-06 -7.9710852283166844e-08 0.0000000000000000e+00  -4.3406009263472867e-07 -5.4095082281819656e-08 0.0000000000000000e+00  -4.6148910772231104e-06 -2.7673993487468118e-08 0.0000000000000000e+00  -3.4668941935348067e-06 2.3687456529091751e-07 0.0000000000000000e+00  1.0696821012392386e+00 1.4470088604167948e-05 0.0000000000000000e+00  1.0696237220340485e+00 5.6571992789757116e-06 0.0000000000000000e+00  1.0687448904486603e+00 -1.1153833789736022e-03 0.0000000000000000e+00  1.0695647819122236e+00 -1.0515471448542497e-04 0.0000000000000000e+00  1.0694854131425933e+00 8.7057368805460215e-06 0.0000000000000000e+00  1.0703709135483748e+00 9.4521978003669666e-05 0.0000000000000000e+00  1.0307438473931831e+00 -9.5268016392103232e-03 0.0000000000000000e+00  1.0695693615791806e+00 2.0755670928172805e-05 0.0000000000000000e+00  7.4358392440649756e-08 -3.8924357454383462e-08 0.0000000000000000e+00  -1.2973210188992134e-06 1.8997160919588149e-07 0.0000000000000000e+00  1.0697104443722290e+00 -1.0275462172384972e-03 0.0000000000000000e+00  -9.7252411603200454e-06 4.5881572225873958e-08 0.0000000000000000e+00  -2.6760902791394357e-06 8.0956507936826124e-07 0.0000000000000000e+00  -8.2178212483511090e-06 -4.2056246703178333e-08 0.0000000000000000e+00  1.0696335348160237e+00 2.4766205727489565e-05 0.0000000000000000e+00  -3.1833701829923189e-06 2.8048175568156506e-07 0.0000000000000000e+00  -5.7052861919022153e-06 1.8841050094799823e-07 0.0000000000000000e+00  4.4485700142784222e-07 -2.2997435833414205e-07 0.0000000000000000e+00  1.0696866326131373e+00 -3.6236640487495879e-04 0.0000000000000000e+00  -2.8003501319537887e-06 1.4017888883441996e-07 0.0000000000000000e+00  2.0494695064107887e-06 -1.8156421178746352e-07 0.0000000000000000e+00  4.1465839091007150e-06 2.1840841875342219e-07 0.0000000000000000e+00  -8.0106654052989078e-06 -1.5701051981124187e-07 0.0000000000000000e+00  1.6649981766953402e-05 4.3020939715968602e-06 0.0000000000000000e+00  1.0961554535576670e-05 -4.0005057906080732e-06 0.0000000000000000e+00  -7.6405959657740329e-07 1.5710276559459153e-07 0.0000000000000000e+00  1.0694343753588320e+00 -4.1626187198510021e-05 0.0000000000000000e+00  -1.6696142613318904e-06 -4.9452666940357534e-08 0.0000000000000000e+00  1.0696238141879724e+00 -4.7724226499863149e-05 0.0000000000000000e+00  1.0695231000682426e+00 -9.4890006684008240e-06 0.0000000000000000e+00  1.0695440365428339e+00 -8.9983972827836404e-05 0.0000000000000000e+00  1.0694664834064691e+00 -1.0888712476117375e-04 0.0000000000000000e+00  1.0696840493509931e+00 1.2721101050544272e-04 0.0000000000000000e+00  1.2307842133315814e+00 -2.2397513676707240e-01 0.0000000000000000e+00  1.0695395280885795e+00 -4.3886340826952523e-05 0.0000000000000000e+00  1.0696943275561703e+00 2.0982518801932195e-04 0.0000000000000000e+00  1.0695388915624697e+00 -4.3011481990785248e-05 0.0000000000000000e+00  1.0717049132338703e+00 -3.6303584231437229e-03 0.0000000000000000e+00  1.0684201096770898e+00 1.0478700091124829e-03 0.0000000000000000e+00  1.0871648792651567e+00 2.2724064855914186e-01 0.0000000000000000e+00  1.1249973248193244e+00 3.2601486025114337e-06 0.0000000000000000e+00  1.1249883241546754e+00 -2.0496830511063641e-06 0.0000000000000000e+00  1.0696138116452305e+00 8.7095097826184801e-06 0.0000000000000000e+00  1.0772715489417986e+00 2.3355907557817201e-02 0.0000000000000000e+00  1.0641895034651989e+00 -2.9396757188864656e-03 0.0000000000000000e+00  1.0888642204888253e+00 -2.8296529775656647e-02 0.0000000000000000e+00  1.0701194700617898e+00 -9.2417330066346302e-04 0.0000000000000000e+00  1.0695224484284178e+00 2.1394387950276716e-04 0.0000000000000000e+00  1.0693158381395635e+00 6.1003606411407558e-05 0.0000000000000000e+00  1.0693801133373604e+00 8.0166865621406210e-06 0.0000000000000000e+00  1.0690434108324767e+00 -3.1023493088376807e-04 0.0000000000000000e+00  1.0686151038929148e+00 4.5377158812795698e-04 0.0000000000000000e+00  1.0696660382251406e+00 -1.3908965221497835e-04 0.0000000000000000e+00  1.0693806050372934e+00 1.6912705069562196e-05 0.0000000000000000e+00  1.0694744257376230e+00 -7.1740513244374546e-05 0.0000000000000000e+00  1.0696905965511596e+00 1.8478850604126639e-04 0.0000000000000000e+00  1.0698060082606500e+00 1.0303411348844189e-03 0.0000000000000000e+00  1.0696234406905181e+00 -2.7588774039762190e-04 0.0000000000000000e+00  1.0695500464419641e+00 -7.6177499429982992e-05 0.0000000000000000e+00  1.0695553355626333e+00 -6.2159265855330588e-05 0.0000000000000000e+00  1.0690773615686520e+00 -1.8642537249588171e-04 0.0000000000000000e+00  1.0694506043311369e+00 -1.4614597622667334e-04 0.0000000000000000e+00  1.0695206327399693e+00 1.2142152857329047e-05 0.0000000000000000e+00  1.2033640389342373e+00 2.3104794626583808e-01 0.0000000000000000e+00  1.0695818593898321e+00 8.0700826407678316e-05 0.0000000000000000e+00  4.8239519222305599e-01 -2.1750890744004689e-01 0.0000000000000000e+00  1.0692586828498942e+00 -4.2678374329330123e-04 0.0000000000000000e+00  1.0695717685023105e+00 -3.3736609133249744e-05 0.0000000000000000e+00  1.2527751109375329e+00 3.5156669359328635e-01 0.0000000000000000e+00  1.0695660673178398e+00 4.4228922640900330e-05 0.0000000000000000e+00  1.4796526857879448e+00 1.5334905643191171e-01 0.0000000000000000e+00  1.1676848370275577e+00 -2.2827484293232947e-01 0.0000000000000000e+00  -3.1117953500732055e-07 4.4778217160834582e-08 0.0000000000000000e+00  1.0677526265172801e+00 1.5667724428114474e-04 0.0000000000000000e+00  -2.7880282810488499e-06 -1.8981580192951270e-07 0.0000000000000000e+00  -7.6306069132336246e-06 -2.0066243983735896e-07 0.0000000000000000e+00  1.0696619899239117e+00 -5.5469620206981042e-05 0.0000000000000000e+00  -2.9704675025327178e-05 2.9900743008089803e-06 0.0000000000000000e+00  1.0691774300573504e+00 -3.2506155784296070e-04 0.0000000000000000e+00  -5.1690637318936613e-06 1.7740338190799033e-07 0.0000000000000000e+00  -4.3141780482655178e-06 -2.4549074447765650e-07 0.0000000000000000e+00  1.0697393440755651e+00 1.5225793906053220e-04 0.0000000000000000e+00  2.0673900815361767e-06 4.5376433381193180e-07 0.0000000000000000e+00  1.0498262444348854e+00 -9.8897026372304478e-02 0.0000000000000000e+00  1.3580151651759564e+00 -3.9339459569848423e-01 0.0000000000000000e+00  1.0695165693066486e+00 -1.6088292457796358e-04 0.0000000000000000e+00  1.3412619628667275e+00 -1.0923005406038243e-01 0.0000000000000000e+00  1.0635538299415930e+00 -1.5530610832187507e-02 0.0000000000000000e+00  1.3743700264025640e+00 1.1804977745548779e-01 0.0000000000000000e+00  1.0586342094794352e+00 7.2786355118595073e-03 0.0000000000000000e+00  1.0694739534750362e+00 2.2882546037268869e-05 0.0000000000000000e+00  1.0687638984089041e+00 -4.3953344181892409e-04 0.0000000000000000e+00  -3.1723756292743649e-07 2.2229370643353011e-07 0.0000000000000000e+00  1.0695778618009679e+00 5.3327041444657567e-05 0.0000000000000000e+00  1.0696090133822458e+00 -1.5789134279527208e-04 0.0000000000000000e+00  1.0695547150205504e+00 3.4670393732316660e-05 0.0000000000000000e+00  1.0694093264861566e+00 -5.5002318008710485e-06 0.0000000000000000e+00  1.0691521916111761e+00 -2.3846643263932313e-04 0.0000000000000000e+00  -4.0617080782817895e-06 -1.2209262573425742e-07 0.0000000000000000e+00  1.0696166180443472e+00 6.4257021761964902e-05 0.0000000000000000e+00  1.0689747411069968e+00 1.2000791851483524e-04 0.0000000000000000e+00  1.4249710198609713e+00 -5.1359688423249644e-02 0.0000000000000000e+00  1.0695229967264381e+00 5.7856079210281654e-05 0.0000000000000000e+00  1.0695034454139360e+00 -7.4699360942952607e-05 0.0000000000000000e+00  -2.3373171539610219e-07 7.6698982249880601e-09 0.0000000000000000e+00  -1.7025867913695306e-05 1.1260747515338761e-07 0.0000000000000000e+00  1.0696191747708943e+00 -7.5501945176727626e-04 0.0000000000000000e+00  1.0689650614363375e+00 -1.9105435988527554e-04 0.0000000000000000e+00  1.1462029990716660e+00 -5.8759864640004052e-02 0.0000000000000000e+00  1.0696665013790962e+00 -3.7027215285879303e-05 0.0000000000000000e+00  1.8823065036819523e-05 1.5720451945607551e-05 0.0000000000000000e+00  6.5624845003801402e-01 2.3922621068878747e-06 0.0000000000000000e+00  1.0680700457765049e+00 -6.9821878727819122e-04 0.0000000000000000e+00  1.0766643696386382e+00 -9.5109732051537471e-03 0.0000000000000000e+00  1.0706169840575572e+00 5.8007943757827606e-03 0.0000000000000000e+00  -6.3904878163999028e-06 5.6009490640652054e-07 0.0000000000000000e+00  1.0676383591128771e+00 7.9936609355910212e-04 0.0000000000000000e+00  1.0695287187052258e+00 -3.1325036973063990e-05 0.0000000000000000e+00  -5.6570043141833576e-06 3.2507996799886120e-07 0.0000000000000000e+00  -1.3435198542908035e-05 2.9751086022262886e-07 0.0000000000000000e+00  -6.3261939349990346e-06 4.4446057926462509e-07 0.0000000000000000e+00  9.2747163616813523e-07 6.3609827411678850e-08 0.0000000000000000e+00  -3.7115712781572385e-06 1.7246546669497767e-07 0.0000000000000000e+00  -8.2254811092145706e-07 1.7546317808987117e-07 0.0000000000000000e+00  -1.7548167975686585e-06 -1.1433162357221446e-07 0.0000000000000000e+00  -7.8794691319225439e-07 5.5617728623592877e-08 0.0000000000000000e+00  6.2631327029266342e-06 -1.7493660063444206e-06 0.0000000000000000e+00  -1.2277443694716579e-05 3.6836459856575263e-07 0.0000000000000000e+00  -3.0835676480768645e-05 -4.3214675307237335e-06 0.0000000000000000e+00  3.1992814832833342e-05 -1.8796487690911930e-05 0.0000000000000000e+00  -1.1619085217419853e-06 1.5076095702116654e-07 0.0000000000000000e+00  -7.1384829559107489e-06 -2.1625746323762423e-07 0.0000000000000000e+00  -4.6876710568040690e-06 9.0708110076731705e-08 0.0000000000000000e+00  -1.7308486519794648e-06 -1.4566710577750463e-07 0.0000000000000000e+00  -8.1092155753918473e-06 -2.5751163900269875e-07 0.0000000000000000e+00  -2.7028164606985360e-06 -2.0692762027004518e-08 0.0000000000000000e+00  -9.0985051833613638e-07 -3.6822156447770052e-08 0.0000000000000000e+00  1.0652333732234869e+00 1.3088387432864286e-03 0.0000000000000000e+00  1.0687109434797686e+00 5.6153142776799983e-04 0.0000000000000000e+00  1.0688679304143474e+00 -2.4119497062465202e-04 0.0000000000000000e+00  1.0684132223423615e+00 1.2901868616397691e-04 0.0000000000000000e+00  1.0695865660570383e+00 -7.6861827709419203e-07 0.0000000000000000e+00  1.0695990436759082e+00 8.8841261760971465e-06 0.0000000000000000e+00  1.0680192947840954e+00 -4.5601572608970175e-04 0.0000000000000000e+00  1.0661928979897628e+00 1.5588324207217428e-03 0.0000000000000000e+00  9.4092294615145289e-01 3.9482982047627825e-02 0.0000000000000000e+00  1.1930710592732046e+00 6.9698909188759345e-02 0.0000000000000000e+00  1.0194611936734561e+00 5.5745471422791293e-01 0.0000000000000000e+00  1.0698155859231693e+00 1.8172852008088152e-04 0.0000000000000000e+00  1.0697323693883287e+00 9.5287631982054604e-05 0.0000000000000000e+00  1.0696273635760503e+00 1.0666762041872173e-04 0.0000000000000000e+00  1.0695198675478541e+00 1.7917892801045047e-05 0.0000000000000000e+00  1.0670573854888470e+00 -3.2264085221629034e-04 0.0000000000000000e+00  1.0683166154355987e+00 -6.0022872972481786e-04 0.0000000000000000e+00  1.0682557779630928e+00 1.9403493186951557e-04 0.0000000000000000e+00  1.0692455684903057e+00 -2.1612669955107435e-04 0.0000000000000000e+00  1.0698976273984369e+00 -3.5734256565921833e-04 0.0000000000000000e+00  1.0679916130498792e+00 -3.0877286708552010e-05 0.0000000000000000e+00  1.3079715776269754e+00 -5.1436572264446101e-01 0.0000000000000000e+00  1.0696113889335006e+00 -2.7566431900654407e-06 0.0000000000000000e+00  1.0695612701989354e+00 3.7074803923459660e-05 0.0000000000000000e+00  1.0696916745973255e+00 2.2351643238391503e-05 0.0000000000000000e+00  1.0681917438399571e+00 -9.7474401712096444e-05 0.0000000000000000e+00  1.0696073322158368e+00 -4.7626161385743136e-05 0.0000000000000000e+00  1.0695190830364352e+00 -4.7111456294491235e-05 0.0000000000000000e+00  1.0676961865642538e+00 1.6585216167236538e-04 0.0000000000000000e+00  1.0695865272768394e+00 1.5502010666818945e-05 0.0000000000000000e+00  1.0686555725924054e+00 8.2447808257274304e-04 0.0000000000000000e+00  1.0697908083931724e+00 -1.9532849920696886e-03 0.0000000000000000e+00  6.5624609682151214e-01 -1.6461731288976903e-06 0.0000000000000000e+00  1.0668306185269951e+00 6.6598284656556534e-05 0.0000000000000000e+00  1.0677570733979305e+00 -3.2841998336788255e-04 0.0000000000000000e+00  1.0572921376484881e+00 7.1973501589464695e-02 0.0000000000000000e+00  1.0652192004113128e+00 1.9108606042225560e-05 0.0000000000000000e+00  1.0693548978511171e+00 -2.5169836043736839e-04 0.0000000000000000e+00  1.0694282873617567e+00 -4.1354605435981362e-05 0.0000000000000000e+00  1.0698524879333027e+00 -4.3589635884550479e-05 0.0000000000000000e+00  1.0694774519334398e+00 2.9173341085261723e-05 0.0000000000000000e+00  1.0694969876108080e+00 1.1032876232180902e-04 0.0000000000000000e+00  1.0987012041840130e+00 1.7171764505444338e-02 0.0000000000000000e+00  1.0690246041173410e+00 3.2964812670825340e-03 0.0000000000000000e+00  1.0638099702950956e+00 9.9038949731808791e-05 0.0000000000000000e+00  1.0695811028790789e+00 -1.6095659427993805e-05 0.0000000000000000e+00  1.0695257990721889e+00 -2.8014951435098139e-04 0.0000000000000000e+00  1.0684140664501083e+00 -3.7468163584504356e-03 0.0000000000000000e+00  1.0701356192882374e+00 6.2521459388801051e-04 0.0000000000000000e+00  1.0789794827689041e+00 -6.3240937969190111e-03 0.0000000000000000e+00  1.0684082362860667e+00 -6.6745903305271839e-06 0.0000000000000000e+00  1.0585599787383164e+00 2.0223912771577654e-04 0.0000000000000000e+00  9.4527890891570798e-01 7.7163498735989239e-02 0.0000000000000000e+00  1.0643824689235863e+00 -1.4706011862257301e-03 0.0000000000000000e+00  1.0658039895953966e+00 1.8603151404987786e-03 0.0000000000000000e+00  1.0695427481052222e+00 3.5439197559077445e-05 0.0000000000000000e+00  1.0695895344918225e+00 -1.7935572318838043e-04 0.0000000000000000e+00  1.2275952144296056e+00 1.5353583569872814e-01 0.0000000000000000e+00  1.0691193100315215e+00 -8.1058260381991978e-06 0.0000000000000000e+00  1.0693079973370603e+00 1.0198364753795499e-04 0.0000000000000000e+00  1.0695674504841939e+00 2.7992592971295118e-05 0.0000000000000000e+00  1.0697611522725070e+00 4.3279145243257168e-04 0.0000000000000000e+00  1.3257940001315089e+00 8.2811041218399606e-02 0.0000000000000000e+00  1.0694149382874654e+00 -3.1851637940899668e-05 0.0000000000000000e+00  1.0694761281173573e+00 -2.1489639095842278e-05 0.0000000000000000e+00  1.0697492631475443e+00 7.8764076724822520e-05 0.0000000000000000e+00  1.0694664128087843e+00 -8.4590771262280388e-05 0.0000000000000000e+00  1.0592653081590042e+00 -1.1493195914397312e-03 0.0000000000000000e+00  1.0588544332999410e+00 4.2393073891382508e-04 0.0000000000000000e+00  1.0671306864078407e+00 2.7139153980189682e-04 0.0000000000000000e+00  1.0685222331060356e+00 -1.9012000518104800e-04 0.0000000000000000e+00  1.0688911134672558e+00 5.6984038412599431e-05 0.0000000000000000e+00  1.0695408381326192e+00 3.4787747676929874e-05 0.0000000000000000e+00  1.0583777645322152e+00 -7.2975217967859239e-04 0.0000000000000000e+00  1.0696431884660065e+00 -1.1714743528386578e-06 0.0000000000000000e+00  1.0696696121916505e+00 2.6320070231853873e-05 0.0000000000000000e+00  1.3642022885585292e+00 -2.4578491803374760e-02 0.0000000000000000e+00  1.0695986709088536e+00 -2.4650115956467443e-05 0.0000000000000000e+00  1.0696513263749421e+00 1.4799928685696251e-05 0.0000000000000000e+00  1.0692565795273703e+00 -2.0160790224272107e-04 0.0000000000000000e+00  1.0527373442534893e+00 -1.0971863166370631e-03 0.0000000000000000e+00  1.0695380644627890e+00 -1.0801724045301127e-04 0.0000000000000000e+00  1.0546561089455977e+00 -3.7533047897899609e-02 0.0000000000000000e+00  1.0652491197409164e+00 -1.1952657596883019e-03 0.0000000000000000e+00  7.4994612778206271e-01 -4.7412990803721071e-02 0.0000000000000000e+00  1.3005019689112609e+00 -8.5790176227644524e-02 0.0000000000000000e+00  1.0624709148408986e+00 5.1605142668668252e-04 0.0000000000000000e+00  1.0582523103320529e+00 1.1557248497690692e-03 0.0000000000000000e+00  1.5346606782437655e+00 4.7029205842136751e-01 0.0000000000000000e+00  8.7483668301682549e-01 2.9546120516870655e-01 0.0000000000000000e+00  1.0623447936431678e+00 -1.2312381068129720e-03 0.0000000000000000e+00  1.7037163806423450e+00 1.2437336145530876e-01 0.0000000000000000e+00  1.4954327092202733e+00 -5.1668500563182485e-01 0.0000000000000000e+00  8.8024725528791592e-01 -2.7798089134430365e-01 0.0000000000000000e+00  1.0617447343606350e+00 4.5453686143710157e-04 0.0000000000000000e+00  1.0635457638530592e+00 -4.4235275430905740e-04 0.0000000000000000e+00  1.0622237240875856e+00 9.3606876558977351e-04 0.0000000000000000e+00  1.0664309309507467e+00 -1.5672538777413531e-03 0.0000000000000000e+00  1.0694633504517277e+00 -3.1938191095935494e-05 0.0000000000000000e+00  1.0545440534543642e+00 -5.2415658970603731e-03 0.0000000000000000e+00  1.4062431340009311e+00 1.7669106613044429e-06 0.0000000000000000e+00  1.0702713153868333e+00 -3.3038330314475974e-04 0.0000000000000000e+00  1.0639958396254958e+00 6.4562261837553458e-04 0.0000000000000000e+00  1.4062420664927140e+00 -3.7938465413582072e-07 0.0000000000000000e+00  1.0666571751640059e+00 -9.5677624246482318e-04 0.0000000000000000e+00  1.0694153905507073e+00 -1.0549313017843303e-04 0.0000000000000000e+00  1.2796426375089269e+00 3.2104536074554185e-02 0.0000000000000000e+00  1.0694040537776486e+00 -2.3467547931261223e-05 0.0000000000000000e+00  7.0434081802612625e-01 7.0734922977365680e-02 0.0000000000000000e+00  1.0698643398458030e+00 -5.3504471831933592e-05 0.0000000000000000e+00  1.0639623070084625e+00 -2.0050185731554384e-04 0.0000000000000000e+00  1.0606753979178600e+00 -5.5777869142380069e-04 0.0000000000000000e+00  1.0410764822206706e+00 -1.6738720325111332e-03 0.0000000000000000e+00  1.0695422059044817e+00 -1.5140363631442928e-04 0.0000000000000000e+00  1.0429160286475025e+00 1.3663908099338998e-03 0.0000000000000000e+00  1.0590204068184199e+00 -1.