<?xml version="1.0"?>
<VTKFile type="UnstructuredGrid"  version="0.1"  >
<UnstructuredGrid>
<Piece  NumberOfPoints="2446" NumberOfCells="4585">
<Points>
<DataArray  type="Float64"  NumberOfComponents="3"  format="ascii">0 0.41 0  0 0 0  2.2 0 0  2.2 0.41 0  0.2404508497187474 0.2293892626146237 0  0.25 0.2 0  0.2404508497187474 0.1706107373853764 0  0.2154508497187474 0.1524471741852423 0  0.1845491502812526 0.1524471741852423 0  0.1595491502812526 0.1706107373853764 0  0.15 0.2 0  0.1595491502812526 0.2293892626146237 0  0.1845491502812527 0.2475528258147577 0  0.2154508497187474 0.2475528258147577 0  1.1 0 0  1.1 0.41 0  0 0.205 0  0.55 0 0  0.55 0.41 0  0.275 0 0  0.275 0.41 0  1.65 0.41 0  1.65 0 0  0.8250000000000001 0.41 0  0.8250000000000001 0 0  1.375 0 0  1.375 0.41 0  1.925 0 0  1.925 0.41 0  1.5125 0.205 0  1.7875 0.205 0  0.6875 0.205 0  0.9625000000000001 0.205 0  1.2375 0.205 0  2.2 0.205 0  0.4687002074688797 0.2068568464730291 0  1.99375 0.2152743902439024 0  2.0625 0 0  2.0625 0.41 0  2.2 0.3075 0  0.4125 0 0  0.4125 0.41 0  1.7875 0.41 0  1.375 0.1486128048780488 0  1.5125 0 0  1.7875 0 0  1.5125 0.41 0  0.8250000000000001 0.2613871951219511 0  0.9625000000000001 0.41 0  0.9625000000000001 0 0  0.6875 0.41 0  0.6875 0 0  0.1375 0 0  0.1375 0.41 0  1.2375 0 0  1.1 0.1486128048780487 0  1.2375 0.41 0  1.65 0.1486128048780487 0  1.126715909090909 0.2793064024390244 0  1.676715909090909 0.2793064024390244 0  0.8517159090909092 0.1306935975609756 0  1.348284090909091 0.2793064024390244 0  0.34375 0.3032389320646208 0  1.894702181800738 0.1282910975492754 0  2.092797818199262 0.1282910975492754 0  1.85625 0.3075 0  0.61875 0.3075 0  0.61875 0.1025 0  0.3648540804333487 0.1240075933101478 0  0 0.3075 0  0 0.1025 0  2.099172119769978 0.25625 0  0.48125 0.09238439620688085 0  0.5781001037344399 0.2059284232365146 0  0.48125 0.3196743479159776 0  0.7265881057911006 0.3055240343720796 0  1.99375 0.08395950269330846 0  1.459960956013612 0.3075 0  1.569025960719943 0.2986889805672169 0  0.75625 0.08213100772579164 0  1.03125 0.3278689922742084 0  0.923871252904788 0.3078247185783941 0  1.959375 0.3126371951219512 0  1.749222215368287 0.1025 0  1.275777784631713 0.1025 0  2.2 0.1025 0  1.225938124459196 0.3075 0  1.550777784631713 0.1025 0  1.000777784631713 0.1025 0  1.44375 0.07430640243902442 0  1.16875 0.07430640243902437 0  1.899250267340833 0.2229966846119207 0  0.1020898364287272 0.3140258291809757 0  1.766482954545455 0.2934032012195123 0  0.3405058858996321 0.2119987970531874 0  0.7710785630958338 0.1710968191298857 0  1.046078563095834 0.2389031808701144 0  0.2 0.3400647632937836 0  1.421109702350723 0.2261157654379721 0  0.2800464974185557 0.08982544815605742 0  0.098916018031319 0.09171660955420841 0  2.13125 0 0  2.118919042110979 0.3422084711244843 0  1.30625 0.41 0  0.89375 0 0  1.597888256393107 0.2173787389261347 0  0.20625 0 0  1.829299675393195 0.07400700849299596 0  1.71875 0.41 0  1.16875 0.41 0  2.038220665644273 0.332420740103091 0  0.34375 0 0  0.417496017710808 0.2696595573092803 0  0.2 0.07687845740457822 0  0.9295982307099278 0.1343158415898188 0  0.07390688010811153 0.1697064032433452 0  0.5238366813727013 0.2578302467013575 0  0.05452951551825875 0.25625 0  0.5229630068078351 0.1548816096928243 0  1.452769549894695 0.1548122580621249 0  1.369219062229598 0.07430640243902442 0  1.30625 0 0  0.8504409521244898 0.3356935975609756 0  0.8821881244591965 0.205 0  1.720943423819132 0.1714577452753128 0  1.157188124459196 0.205 0  1.094219062229598 0.07430640243902437 0  1.03125 0 0  1.304056576180868 0.1714577452753128 0  1.67579304192913 0.07430640243902437 0  0.2751941921308361 0.3346083473122598 0  1.209670467133757 0.1362100266964769 0  1.025335513626278 0.1700681449722324 0  0.7562500000000001 0.41 0  1.58125 0 0  0.7567170593862014 0.2409196493502535 0  0.6926714215682891 0.1272249611432207 0  0.4139715849905988 0.3397932387114203 0  0.9840787304190477 0.2717749043358119 0  0.06875000000000001 0.41 0  0 0.35875 0  0.9281250000000001 0.06276726142697993 0  0.5507396469029935 0.3219409231578227 0  0.5504468037989405 0.09136885600634273 0  1.58125 0.41 0  1.631724228912893 0.3381867502687533 0  1.825608881788174 0.14499488549201 0  1.85625 0 0  1.44375 0 0  1.44375 0.41 0  1.85625 0.41 0  2.13125 0.41 0  0.7562500000000001 0 0  0.89375 0.41 0  0.4812500000000001 0 0  0.34375 0.41 0  0.4812500000000001 0.41 0  0.20625 0.41 0  0.06875000000000001 0 0  1.16875 0 0  0.61875 0 0  0.61875 0.41 0  1.03125 0.41 0  1.71875 0 0  1.99375 0 0  1.99375 0.41 0  1.340625 0.3489494290853124 0  1.134375 0.3489494290853123 0  1.700180620188976 0.3438659752031281 0  2.135782184673599 0.07126652247502523 0  1.668441847249787 0.2129203728327609 0  1.295782514339747 0.2378437748815763 0  0.8233075729931248 0.06842334294821524 0  1.409375 0.3520314716057996 0  0.403505597322782 0.182067236678212 0  0.378125 0.05794951541303489 0  0.3043468223249023 0.1518321115979534 0  2.129248544730567 0.1906135162504124 0  2.060771381434487 0.1989445750470348 0  2.013252586573865 0.1496169464686054 0  1.942766402200229 0.1734448904596831 0  1.895522487186454 0.06076163953489683 0  2.069553871656643 0.06605731020975725 0  1.274680914880868 0.3520219391081363 0  1.614713220494657 0.09473434380863296 0  0.7899021319497519 0.3149123934144827 0  0.69518737419149 0.0634051089053758 0  0.2971740475496061 0.2592172353407536 0  1.72990325744076 0.2380068107952482 0  1.356580098625191 0.2120393231351682 0  2.034370752044885 0.2668681600792073 0  1.51768709249349 0.3426260931494756 0  1.561883724969884 0.1650446847858835 0  1.197344062229598 0.2523725417393646 0  1.804085235518364 0.3468178408964637 0  1.817887819205233 0.2589243285818559 0  1.905897727272727 0.3485060975609756 0  0.6719798073392919 0.2688965171178177 0  0 0.05125 0  0.653125 0.35875 0  0.6396896119294488 0.1627615407790282 0  0.4274150154087412 0.1242548552168279 0  1.192836486056382 0.3562350748565544 0  0.8279124365364005 0.183856489168822 0  1.097485222388854 0.2083571153401724 0  1.28257088594801 0.2944411014911587 0  1.474860187679412 0.2504218616229368 0  1.406767003493824 0.2829282258560709 0  0.446875 0.04619219810344041 0  0.515625 0.04585361801037557 0  0.592043440706648 0.05125 0  1.845656689180403 0.1998310418452388 0  2.144958525570388 0.2909790873294231 0  0.6171090763650112 0.2492366900333857 0  2.2 0.15375 0  0.5145586920831158 0.3648371739579888 0  1.57794966442982 0.3540357145964566 0  0.721875 0.3633107922168974 0  0.0496154796471391 0.333125 0  0.5843750000000001 0.3662560860076676 0  0.5810878747760798 0.1474002776121195 0  1.508991196088596 0.1421783375065625 0  0.8840670607017558 0.2640994375393898 0  0.09776612425612034 0.2204896805326566 0  1.50436820029908 0.06143401634903343 0  1.223857000523521 0.0823554862453532 0  1.153316824384777 0.1289850171317837 0  2.148922302309752 0.1258841779285271 0  0.309375 0.04312325590431198 0  1.621993280276081 0.2841214267927899 0  1.550118654119087 0.2461998729100966 0  1.327182649291491 0.1216967252533594 0  1.051977450479407 0.1221382572915816 0  1.753125 0.04556020050186112 0  1.271875 0.04556020050186116 0  0.9816084133102366 0.05126138213476004 0  1.039051841454368 0.0572224914831029 0  0.9719230514536006 0.3480477870845102 0  1.94956388244759 0.1180512551534177 0  1.949997712993411 0.04965831614304109 0  1.771961817615021 0.1530278789497521 0  1.909246823951428 0.2812757146784527 0  0.2459536687882397 0.04668633953831142 0  1.948575539857022 0.2445328248721197 0  1.697271520964565 0.1233917627620729 0  0.7964897648514618 0.1211426571931604 0  1.065625 0.3689344961371042 0  1.085849084308977 0.3170853572226867 0  0.4702981435440001 0.260434880697798 0  1.577403511714593 0.05463601888079143 0  0.05622663515370135 0.05493816910862376 0  0.3267207591099919 0.3566194660323104 0  0.9003051618565143 0.3564049499960621 0  1.751571320346033 0.3651102912045228 0  0.1583785085108421 0.2994699345738728 0  0.1455283439499995 0.3542795598723423 0  2.2 0.35875 0  0.2347662494194072 0.298325008655211 0  0.1527284455616188 0.1065771775690181 0  0.1382139529076665 0.05427454456341477 0  0.8749341636311069 0.05110114999892954 0  0.643661668713109 0.05693499781019222 0  1.466879772203159 0.3611261772912453 0  1.990280163552011 0.3564754268533217 0  1.17471064520912 0.2990917256188288 0  0.5202693090594349 0.206382495511728 0  0 0.25625 0  2.2 0.25625 0  2.2 0.05125 0  0 0.15375 0  1.853978576207987 0.35875 0  0.9787513713939683 0.1487523696999336 0  0.240625 0.3722153812029779 0  1.515638456102889 0.2882700110184686 0  0.09048297387599738 0.3637717362208066 0  2.150453692751374 0.2387066338105111 0  1.323782677156475 0.04897634338873398 0  0.8074131292871642 0.3624701995505916 0  1.409375 0.03715320121951221 0  1.406484531114799 0.1087852750766809 0  1.134375 0.03715320121951218 0  1.627401732573545 0.04552157221025036 0  0.1170173172005315 0.1427610859166811 0  2.045405893604797 0.1105340662939892 0  1.255408269734577 0.1577307500159216 0  2.028125 0.03707597992059326 0  0.4743610090857199 0.1421513964721819 0  0.9354010469015898 0.250631300585664 0  0.04420832937638274 0.128125 0  0.8922386349349938 0.0992956419364831 0  0.1197849154434487 0.2663398672460083 0  1.248258025468107 0.2565907092181813 0  0.3746885856929528 0.370723531618974 0  1.203125 0.0366132337404304 0  0.5724622277005015 0.2751253816079333 0  0.3365425205162783 0.08395777655057959 0  2.072662025974815 0.2975086504196739 0  0.4581080832182547 0.3648371739579888 0  0.3874522734668214 0.2295447548840689 0  0.7827853612484443 0.04106550386289586 0  1.887722846421017 0.1760882698830035 0  1.472640588990488 0.1118278026240017 0  1.865937103925594 0.2604137786483804 0  1.463913572748262 0.2030442564990043 0  1.376426316059077 0.3186741374914345 0  0.6641993820150034 0.3141688596240831 0  0.2943117490824315 0.2130987422685822 0  0.3478153998082709 0.1666571081082676 0  0.3427990510599805 0.2575950027870776 0  0.7997118993855807 0.2216171933356366 0  
[...]
<PointData  Vectors="f_31"> 
<DataArray  type="Float64"  Name="f_31"  NumberOfComponents="3" format="ascii">2.2354668955358931e-06 3.7455238636737434e-08 0.0000000000000000e+00  -2.3012059382568223e-06 -2.9065999008825713e-08 0.0000000000000000e+00  3.7298930403674461e-06 -1.6192593920330971e-09 0.0000000000000000e+00  -1.6171297362422031e-05 -1.0562060257710275e-08 0.0000000000000000e+00  -3.3410522080842920e-06 -3.4221379694985833e-06 0.0000000000000000e+00  -5.2990578340907871e-08 -1.9401874497144877e-05 0.0000000000000000e+00  3.1373483099004674e-06 -1.0704037653617091e-05 0.0000000000000000e+00  -6.5931971292761420e-06 4.8517525361194906e-06 0.0000000000000000e+00  -5.1787467564133892e-07 5.4793763611233387e-06 0.0000000000000000e+00  1.0215679714343556e-05 -2.3474440582544039e-06 0.0000000000000000e+00  -2.0780707317397599e-07 -3.8743316498680574e-06 0.0000000000000000e+00  -1.7441790637068915e-05 -3.4960309477721957e-06 0.0000000000000000e+00  4.1012529282662694e-06 8.4184754661544070e-06 0.0000000000000000e+00  -1.2154918371941502e-05 2.8764213190655231e-07 0.0000000000000000e+00  -2.4485485410833423e-06 7.5101752707244572e-09 0.0000000000000000e+00  1.1357317411478943e-07 -4.5599182985308805e-09 0.0000000000000000e+00  1.5000043727193166e+00 -2.1739938575507039e-06 0.0000000000000000e+00  8.0552090051563080e-06 -2.9936197730331589e-06 0.0000000000000000e+00  8.0556169222817009e-06 5.8074438355367671e-07 0.0000000000000000e+00  2.8748514403949819e-06 3.6536375797677897e-07 0.0000000000000000e+00  -3.0842159463564315e-06 5.6513884200922967e-08 0.0000000000000000e+00  4.4987612876266035e-07 -1.8421334617161808e-09 0.0000000000000000e+00  4.7345201409712545e-07 -1.3461511909018353e-08 0.0000000000000000e+00  -1.4212332427475228e-06 1.4346982860721517e-07 0.0000000000000000e+00  -6.7600312173673240e-06 -5.7682326726883274e-08 0.0000000000000000e+00  -3.7123069471057884e-06 1.9627224650190249e-10 0.0000000000000000e+00  -6.7073830466643559e-07 3.7985823792019512e-09 0.0000000000000000e+00  -2.8008904363007977e-06 1.6295308666155805e-08 0.0000000000000000e+00  -2.0763310120065638e-06 -6.5420535011251597e-09 0.0000000000000000e+00  1.1448570366975348e+00 3.2886217798988707e-05 0.0000000000000000e+00  1.1449701660069114e+00 2.7744308346463841e-05 0.0000000000000000e+00  1.1480009715803277e+00 4.1861059886604832e-03 0.0000000000000000e+00  1.1464915946617444e+00 -3.8726892034450728e-03 0.0000000000000000e+00  1.1445349600027075e+00 -1.9988733039428294e-04 0.0000000000000000e+00  1.1448570058376606e+00 -4.7887850830201687e-05 0.0000000000000000e+00  -1.9698637981322414e-01 -2.4444124965020539e-01 0.0000000000000000e+00  1.1448775484377991e+00 -4.9314007765510127e-05 0.0000000000000000e+00  3.6781794955096263e-07 2.8677233487356461e-09 0.0000000000000000e+00  -8.0508941251263308e-07 1.3441552682162858e-09 0.0000000000000000e+00  1.1421163399742984e+00 -1.2577555030205222e-05 0.0000000000000000e+00  -4.2208751326719467e-06 3.3731122465365298e-07 0.0000000000000000e+00  4.0014902689187965e-06 -4.1342115862618184e-07 0.0000000000000000e+00  -5.7830671634412806e-06 -9.2024560655330036e-09 0.0000000000000000e+00  1.1447298017720788e+00 6.6221076062665896e-06 0.0000000000000000e+00  2.7994848839867743e-07 -6.2923718325069478e-09 0.0000000000000000e+00  -4.0326739997471252e-06 1.3738832416637870e-08 0.0000000000000000e+00  1.1254929975148380e-06 -6.6243371674457175e-09 0.0000000000000000e+00  1.1776365890604588e+00 1.1046909964702555e-02 0.0000000000000000e+00  -1.4229637282495574e-06 2.1936635680537421e-09 0.0000000000000000e+00  2.4909688508003714e-06 1.3080248111243165e-08 0.0000000000000000e+00  -1.6259547084496311e-06 -4.0370210322758394e-07 0.0000000000000000e+00  -7.6443790257521530e-06 1.6399683250029910e-06 0.0000000000000000e+00  -3.5038211265815347e-06 6.1692766047178712e-07 0.0000000000000000e+00  -5.8483065563595350e-06 -5.4474891213756072e-07 0.0000000000000000e+00  3.6100575393886871e-07 1.4416376417830050e-09 0.0000000000000000e+00  1.1442291531966076e+00 -8.4919796275198588e-04 0.0000000000000000e+00  -1.4822155572255288e-06 -3.3654842277745465e-09 0.0000000000000000e+00  1.1450253343557666e+00 5.2629869308205092e-05 0.0000000000000000e+00  1.1450389556710809e+00 -4.4001691977000977e-04 0.0000000000000000e+00  1.1446487224695332e+00 8.1769686691012357e-05 0.0000000000000000e+00  1.1410354749827414e+00 -2.4961914275959462e-02 0.0000000000000000e+00  1.1446666520752060e+00 -2.8824521128865047e-05 0.0000000000000000e+00  2.0400978912116905e+00 -1.0128146252926679e-01 0.0000000000000000e+00  1.1446615706112684e+00 -6.8280954623775486e-05 0.0000000000000000e+00  1.1448036550022982e+00 -1.4363074241079498e-04 0.0000000000000000e+00  1.1418879353510141e+00 3.8762341631471660e-05 0.0000000000000000e+00  1.2959251573651087e+00 -5.3345759357727555e-03 0.0000000000000000e+00  1.2769803290578385e+00 5.3870336318989638e-02 0.0000000000000000e+00  1.5220668116755480e+00 1.4104055069449098e-01 0.0000000000000000e+00  1.1249989900795958e+00 -9.0520807628373518e-07 0.0000000000000000e+00  1.1249902214837351e+00 -6.0095448756200087e-07 0.0000000000000000e+00  1.1447666350047538e+00 -5.0186703066353437e-05 0.0000000000000000e+00  1.6374639897825709e+00 3.5431817740514127e-01 0.0000000000000000e+00  7.2587595275786665e-01 4.9467279103995600e-02 0.0000000000000000e+00  1.4875281364884532e+00 -2.9131609762492355e-01 0.0000000000000000e+00  1.1771166602032972e+00 1.0720769362919358e-01 0.0000000000000000e+00  1.1319958529003786e+00 -5.2832297148159147e-07 0.0000000000000000e+00  1.1425670486559447e+00 -3.6984529208271609e-05 0.0000000000000000e+00  1.1435857113696182e+00 7.8534239612884741e-05 0.0000000000000000e+00  1.0438287350575202e+00 -1.2206989095410188e-01 0.0000000000000000e+00  1.1302934007581753e+00 -1.5768033770834777e-04 0.0000000000000000e+00  1.1446958661771256e+00 1.8652927793212611e-03 0.0000000000000000e+00  1.1409673763763213e+00 -3.9274770769538238e-05 0.0000000000000000e+00  1.1418968549581796e+00 -2.7019558015282469e-04 0.0000000000000000e+00  1.1425353030660295e+00 -1.2003382779522272e-04 0.0000000000000000e+00  1.1420534170689778e+00 -3.0044008471892747e-04 0.0000000000000000e+00  1.1426257384501635e+00 -4.0079176045551950e-05 0.0000000000000000e+00  1.1424505905790525e+00 1.5269426008401410e-04 0.0000000000000000e+00  1.1399700608232346e+00 -1.9994511271536493e-03 0.0000000000000000e+00  1.1173196191264507e+00 1.4565664350112039e-05 0.0000000000000000e+00  1.1168143390510101e+00 -7.3134531365093183e-05 0.0000000000000000e+00  1.1448716700213852e+00 -1.4034493394007767e-05 0.0000000000000000e+00  1.1901806358672395e+00 2.6038408470257551e-01 0.0000000000000000e+00  1.1440031586880910e+00 1.1393954505970903e-04 0.0000000000000000e+00  -5.1321230113108296e-01 1.0635289929165712e-01 0.0000000000000000e+00  1.1770679960875798e+00 -5.2198145331775442e-02 0.0000000000000000e+00  1.1455357035101390e+00 -1.2607272466218231e-03 0.0000000000000000e+00  1.4093104310183582e+00 2.3386375388248237e-01 0.0000000000000000e+00  1.1446362513703072e+00 -2.0978275009471916e-05 0.0000000000000000e+00  1.8711796212976346e+00 -1.1039435714115726e-01 0.0000000000000000e+00  1.1381861659481658e+00 -2.4497464252230064e-01 0.0000000000000000e+00  -5.3854571286477048e-07 1.1455353715892898e-08 0.0000000000000000e+00  1.0994172979654815e+00 2.1137855891569543e-04 0.0000000000000000e+00  -1.6782817342907327e-06 8.0097678008398620e-09 0.0000000000000000e+00  -6.5053119019703559e-06 2.5043500520213208e-08 0.0000000000000000e+00  1.1449487563759049e+00 2.5238333641491453e-05 0.0000000000000000e+00  2.1106332605577802e-06 -4.9786059669827165e-07 0.0000000000000000e+00  1.1161514737432436e+00 -1.7223887159339709e-05 0.0000000000000000e+00  -2.3813764726415571e-06 2.4516240829952035e-10 0.0000000000000000e+00  -1.9555714556630928e-06 2.6402877966097567e-09 0.0000000000000000e+00  1.1233902023103448e+00 -1.8949990131037605e-05 0.0000000000000000e+00  -2.9373102062551964e-06 1.0283971912285543e-07 0.0000000000000000e+00  1.7165438848031747e+00 -4.4628356484032350e-01 0.0000000000000000e+00  1.5167970810345017e+00 -2.7972585480179807e-01 0.0000000000000000e+00  1.1417810331438556e+00 -7.6828476727379457e-03 0.0000000000000000e+00  1.3348676606513530e+00 -9.8601374063026034e-02 0.0000000000000000e+00  1.4687343077935449e+00 -3.1628996076130195e-01 0.0000000000000000e+00  1.3742133270664076e+00 1.3220279602171556e-01 0.0000000000000000e+00  1.3381334760260641e+00 3.8625420796676918e-01 0.0000000000000000e+00  1.1446913435736388e+00 4.3469552833440362e-05 0.0000000000000000e+00  1.1163099496763260e+00 -1.7556470398771411e-04 0.0000000000000000e+00  -6.1261154339765477e-07 1.3952829649171670e-09 0.0000000000000000e+00  1.1092533891555711e+00 1.4645234221298539e-02 0.0000000000000000e+00  1.1529199430506705e+00 -9.8119120697577316e-03 0.0000000000000000e+00  1.1448966608385012e+00 6.7734469652687142e-05 0.0000000000000000e+00  1.1445330180716917e+00 -4.6934723902225311e-04 0.0000000000000000e+00  1.1164621581861689e+00 -2.7226584405882191e-04 0.0000000000000000e+00  -2.7519878178894823e-06 7.0286186104267626e-09 0.0000000000000000e+00  1.1446570763727411e+00 -6.3506029436455089e-05 0.0000000000000000e+00  1.1166192579018632e+00 -9.3636365395153460e-07 0.0000000000000000e+00  1.6781787216159014e+00 8.4569863435875761e-02 0.0000000000000000e+00  1.1445591881268957e+00 -1.8675859613350232e-04 0.0000000000000000e+00  1.1443421806625487e+00 -2.2107861614716067e-03 0.0000000000000000e+00  -1.0082168715250230e-05 -1.1475961018878942e-06 0.0000000000000000e+00  -1.2933105651341877e-05 -2.6979639110300172e-09 0.0000000000000000e+00  1.2765789112193304e+00 1.8717331457919953e-04 0.0000000000000000e+00  1.2860017445394645e+00 -7.8717931108506348e-02 0.0000000000000000e+00  1.5335862943727170e+00 -2.3154898396172827e-01 0.0000000000000000e+00  1.1468811576448181e+00 -1.0678747919318082e-03 0.0000000000000000e+00  -3.1315514226628558e-06 -3.0934010771287315e-07 0.0000000000000000e+00  6.5625067248488389e-01 -2.8109154231095550e-07 0.0000000000000000e+00  1.0736169134675160e+00 -2.4124986317751560e-03 0.0000000000000000e+00  1.2820686948816480e+00 -1.2701783194431529e-01 0.0000000000000000e+00  1.3914207340496207e+00 2.3834079081143450e-01 0.0000000000000000e+00  -4.5943478987580099e-06 1.0311022666687696e-08 0.0000000000000000e+00  1.1115509315350065e+00 1.0699001316564372e-04 0.0000000000000000e+00  1.1448824039648402e+00 -9.9656421361832326e-07 0.0000000000000000e+00  -3.4206104595130917e-06 6.7480046119827076e-10 0.0000000000000000e+00  -1.0143513423239566e-05 5.8064355103471881e-09 0.0000000000000000e+00  -4.0264412103227580e-06 -1.7120319425617982e-08 0.0000000000000000e+00  1.7078299178736975e-06 1.2405802369863116e-08 0.0000000000000000e+00  -2.1897929056227265e-06 -6.5682562101882217e-09 0.0000000000000000e+00  -1.1557677838872989e-05 7.0537877263270431e-07 0.0000000000000000e+00  9.7442668319427109e-07 5.5449390205626017e-08 0.0000000000000000e+00  -1.8660814385014135e-06 -3.6006855813599138e-07 0.0000000000000000e+00  8.6122647874158889e-06 -1.9306349003738562e-07 0.0000000000000000e+00  9.3468972925415397e-07 6.0689667684287515e-07 0.0000000000000000e+00  -4.1342971706174879e-06 -3.2311416976349895e-07 0.0000000000000000e+00  1.0692368482710841e-06 1.2611868656605832e-07 0.0000000000000000e+00  -1.5220722963216426e-07 2.3316146140525957e-09 0.0000000000000000e+00  8.3419077925134832e-06 1.6056030408616950e-07 0.0000000000000000e+00  -9.5156114406885192e-07 1.2460676123965241e-07 0.0000000000000000e+00  -8.6367257294256632e-07 -1.5629813084092784e-08 0.0000000000000000e+00  -7.2521720664707393e-06 -6.9778163375356181e-09 0.0000000000000000e+00  -2.1239418345708236e-06 -4.1247301919942703e-10 0.0000000000000000e+00  -6.4439277917244816e-07 8.3676487753656115e-09 0.0000000000000000e+00  1.0717296925415674e+00 1.0110736891150056e-04 0.0000000000000000e+00  1.0724782480354360e+00 -1.3704772855327210e-04 0.0000000000000000e+00  1.0935485775841742e+00 1.9612378011377781e-04 0.0000000000000000e+00  1.1092766654352821e+00 -2.9798629743022501e-04 0.0000000000000000e+00  1.1449539899438970e+00 8.0638625797055299e-05 0.0000000000000000e+00  1.1446373134005945e+00 -9.7302751095068869e-05 0.0000000000000000e+00  1.0658734923122355e+00 -2.8140152250692937e-02 0.0000000000000000e+00  1.0557732709367793e+00 1.0511475030908626e-05 0.0000000000000000e+00  -5.8687921628228723e-01 -2.1679637158974153e-03 0.0000000000000000e+00  1.5715636863434181e+00 1.3868222413767520e-01 0.0000000000000000e+00  2.5609626777387473e-01 -9.2522200424906317e-02 0.0000000000000000e+00  1.1448480872166413e+00 -6.4304561735773849e-05 0.0000000000000000e+00  1.1449555327146246e+00 -6.4059515150706440e-05 0.0000000000000000e+00  1.1449686813293474e+00 -6.9787427135205285e-05 0.0000000000000000e+00  1.1449011942744591e+00 -3.4813930869399121e-05 0.0000000000000000e+00  1.0700069779312489e+00 1.1552984176712148e-05 0.0000000000000000e+00  1.0932093430226406e+00 -1.6320401681761820e-04 0.0000000000000000e+00  1.0564021368318255e+00 4.8776314728931802e-05 0.0000000000000000e+00  1.1397343156116531e+00 1.6615591146011491e-05 0.0000000000000000e+00  1.1352204140390527e+00 6.8802983554872701e-02 0.0000000000000000e+00  8.5591932246876123e-01 -1.2169982336122016e-01 0.0000000000000000e+00  6.8523178504356308e-01 9.8563005843215784e-02 0.0000000000000000e+00  1.1448634079020532e+00 5.2437855477035917e-05 0.0000000000000000e+00  1.1445601131085248e+00 -5.4622758060262857e-05 0.0000000000000000e+00  1.1447749078987228e+00 -1.9513825001822379e-05 0.0000000000000000e+00  1.0981344665855164e+00 6.9093740213710419e-05 0.0000000000000000e+00  1.1449033390650654e+00 7.9520242290113222e-05 0.0000000000000000e+00  1.1448185201582297e+00 -2.4236463749311034e-04 0.0000000000000000e+00  1.0825363979702027e+00 -1.0733184768074562e-06 0.0000000000000000e+00  1.1447245872880800e+00 2.7804962682098849e-05 0.0000000000000000e+00  1.0746907881651337e+00 1.0506707730102264e-04 0.0000000000000000e+00  1.4514272550601390e+00 4.3358833356121583e-03 0.0000000000000000e+00  6.5624823286766565e-01 -3.0557715367855376e-07 0.0000000000000000e+00  7.6320115965462709e-01 7.0098623518883352e-02 0.0000000000000000e+00  1.3898306012165913e+00 1.0677047053801969e-01 0.0000000000000000e+00  1.6947721742407822e+00 3.4821552053014931e-01 0.0000000000000000e+00  1.0292873950141206e+00 2.6088042650039325e-05 0.0000000000000000e+00  1.1589882727246648e+00 -2.3883449377747258e-02 0.0000000000000000e+00  1.1446631569017043e+00 -9.2091359358606028e-04 0.0000000000000000e+00  1.1443340856932238e+00 -4.7192877012527736e-05 0.0000000000000000e+00  1.1446519006131912e+00 -2.3412433686379711e-05 0.0000000000000000e+00  1.1446200231891692e+00 -5.3323614520185739e-05 0.0000000000000000e+00  1.1966740532550912e+00 1.7592398245483068e-01 0.0000000000000000e+00  8.3878687480399672e-01 1.2349069104148497e-01 0.0000000000000000e+00  7.1875119863513326e-01 1.1234520373478414e-03 0.0000000000000000e+00  1.1449195977451436e+00 2.2929776858870940e-06 0.0000000000000000e+00  1.1442569052310496e+00 -1.3859049901959202e-06 0.0000000000000000e+00  1.4424864217367446e+00 -4.0098951772019394e-02 0.0000000000000000e+00  1.1447109565159077e+00 -5.0890834712281176e-05 0.0000000000000000e+00  7.8363342764112698e-01 -8.4697604203057109e-02 0.0000000000000000e+00  1.0444915217664126e+00 5.2705561050787634e-05 0.0000000000000000e+00  8.2012088333442057e-01 7.1039391977386152e-02 0.0000000000000000e+00  9.4243353147928122e-01 9.5771860335681205e-02 0.0000000000000000e+00  6.3932445419586381e-01 7.9381007607221936e-03 0.0000000000000000e+00  1.5058834000674459e+00 2.7736550566435197e-01 0.0000000000000000e+00  1.1448038735207766e+00 1.1254470526552427e-04 0.0000000000000000e+00  1.1551321374042260e+00 9.1092496771077059e-04 0.0000000000000000e+00  1.2246419096296250e+00 1.8025381340784555e-01 0.0000000000000000e+00  1.0746786535203019e+00 1.4453510578005255e-05 0.0000000000000000e+00  1.1298250900533628e+00 -1.2074438482850377e-04 0.0000000000000000e+00  1.1443777849535333e+00 -3.5069337182058789e-04 0.0000000000000000e+00  1.1447033268107323e+00 -2.2522953574738493e-04 0.0000000000000000e+00  1.4092581928264882e+00 1.5150499097243624e-02 0.0000000000000000e+00  1.1445500786451628e+00 5.1713653385025830e-05 0.0000000000000000e+00  1.1446816690879236e+00 -1.1153886647629408e-05 0.0000000000000000e+00  1.1444743667650492e+00 -2.7053421082469850e-05 0.0000000000000000e+00  1.1432632467775850e+00 -1.3154521933339298e-03 0.0000000000000000e+00  9.5855137367372567e-01 -2.8923873027276726e-04 0.0000000000000000e+00  9.5842990557195928e-01 -2.9655025965990320e-04 0.0000000000000000e+00  1.0098718281047570e+00 -6.1390762165995779e-04 0.0000000000000000e+00  1.0502503702725547e+00 -2.2698080239028922e-04 0.0000000000000000e+00  1.0772190558846497e+00 5.4242955802680607e-05 0.0000000000000000e+00  1.1442692212980770e+00 -7.3559453516036294e-05 0.0000000000000000e+00  9.9568585174035540e-01 -1.4768944820898661e-04 0.0000000000000000e+00  1.1449828613471287e+00 7.7967613448692964e-06 0.0000000000000000e+00  1.1445595245601181e+00 -2.7109041570304667e-05 0.0000000000000000e+00  1.3397615568643908e+00 -9.4039586418642837e-02 0.0000000000000000e+00  1.1448677335848905e+00 -4.0614560665576413e-05 0.0000000000000000e+00  1.1446955039410995e+00 -7.9644851605008380e-06 0.0000000000000000e+00  1.1445079272721521e+00 -6.2157383967938726e-02 0.0000000000000000e+00  9.0719930446986952e-01 -2.3444239087127696e-04 0.0000000000000000e+00  1.1397694822752207e+00 -3.5458589961945313e-04 0.0000000000000000e+00  1.5257804442836136e+00 -5.1328104954796450e-01 0.0000000000000000e+00  1.0343373294377822e+00 2.1195298081099279e-04 0.0000000000000000e+00  7.3746755212320658e-01 -7.7231345156794820e-02 0.0000000000000000e+00  1.4719238480964634e+00 -4.8900003364696965e-02 0.0000000000000000e+00  1.0259010795501051e+00 1.9523583443245202e-03 0.0000000000000000e+00  9.5115287891118949e-01 1.1581580472051413e-04 0.0000000000000000e+00  1.5396387704981633e+00 4.8028034494798272e-01 0.0000000000000000e+00  1.0113951608480183e+00 1.8331644848688233e-01 0.0000000000000000e+00  1.0098909265441824e+00 9.7160920882726300e-05 0.0000000000000000e+00  1.9219461779602749e+00 2.5949810211939039e-01 0.0000000000000000e+00  1.4519603143938926e+00 -5.0677231321694405e-01 0.0000000000000000e+00  9.7314698494303697e-01 -1.8989875238171106e-01 0.0000000000000000e+00  9.9729951505056114e-01 -5.2076241430512576e-03 0.0000000000000000e+00  7.6704773361394929e-01 -7.7954360381803742e-02 0.0000000000000000e+00  9.9032937836794244e-01 3.4632259760933869e-05 0.0000000000000000e+00  1.0278919705703753e+00 4.6480695534136981e-05 0.0000000000000000e+00  1.1440791906859398e+00 -2.0941787139513578e-04 0.0000000000000000e+00  2.4012843384808583e-01 -1.2187307559908821e-01 0.0000000000000000e+00  1.4062434306616944e+00 -1.9589862330235396e-06 0.0000000000000000e+00  1.1448701514436008e+00 4.2462992093479689e-05 0.0000000000000000e+00  1.0107610940557663e+00 -6.7875803464321767e-04 0.0000000000000000e+00  1.4062431909008899e+00 -1.7210690889617809e-06 0.0000000000000000e+00  1.0106026357963771e+00 -3.7286133472478833e-05 0.0000000000000000e+00  1.1434137826355488e+00 -3.9289655410588873e-03 0.0000000000000000e+00  1.1555776054756146e+00 6.3350423067107212e-02 0.0000000000000000e+00  1.1445224010419701e+00 -5.0065583109576259e-05 0.0000000000000000e+00  7.1714538005434225e-01 1.0071532621931362e-01 0.0000000000000000e+00  1.1447710765586145e+00 -4.2589600745976233e-06 0.0000000000000000e+00  9.9141316317444195e-01 -2.5066265350908113e-04 0.0000000000000000e+00  9.4883145338983643e-01 2.1926832445872572e-02 0.0000000000000000e+00  8.5481133290605871e-01 8.6838859085520560e-05 0.0000000000000000e+00  1.1436023921643039e+00 6.0802392024086997e-06 0.0000000000000000e+00  8.5535925572117033e-01 1.0999808046449160e-05 0.0000000000000000e+00  9.57011569458