<?xml version="1.0"?>
<VTKFile type="UnstructuredGrid"  version="0.1"  >
<UnstructuredGrid>
<Piece  NumberOfPoints="2446" NumberOfCells="4585">
<Points>
<DataArray  type="Float64"  NumberOfComponents="3"  format="ascii">0 0.41 0  0 0 0  2.2 0 0  2.2 0.41 0  0.2404508497187474 0.2293892626146237 0  0.25 0.2 0  0.2404508497187474 0.1706107373853764 0  0.2154508497187474 0.1524471741852423 0  0.1845491502812526 0.1524471741852423 0  0.1595491502812526 0.1706107373853764 0  0.15 0.2 0  0.1595491502812526 0.2293892626146237 0  0.1845491502812527 0.2475528258147577 0  0.2154508497187474 0.2475528258147577 0  1.1 0 0  1.1 0.41 0  0 0.205 0  0.55 0 0  0.55 0.41 0  0.275 0 0  0.275 0.41 0  1.65 0.41 0  1.65 0 0  0.8250000000000001 0.41 0  0.8250000000000001 0 0  1.375 0 0  1.375 0.41 0  1.925 0 0  1.925 0.41 0  1.5125 0.205 0  1.7875 0.205 0  0.6875 0.205 0  0.9625000000000001 0.205 0  1.2375 0.205 0  2.2 0.205 0  0.4687002074688797 0.2068568464730291 0  1.99375 0.2152743902439024 0  2.0625 0 0  2.0625 0.41 0  2.2 0.3075 0  0.4125 0 0  0.4125 0.41 0  1.7875 0.41 0  1.375 0.1486128048780488 0  1.5125 0 0  1.7875 0 0  1.5125 0.41 0  0.8250000000000001 0.2613871951219511 0  0.9625000000000001 0.41 0  0.9625000000000001 0 0  0.6875 0.41 0  0.6875 0 0  0.1375 0 0  0.1375 0.41 0  1.2375 0 0  1.1 0.1486128048780487 0  1.2375 0.41 0  1.65 0.1486128048780487 0  1.126715909090909 0.2793064024390244 0  1.676715909090909 0.2793064024390244 0  0.8517159090909092 0.1306935975609756 0  1.348284090909091 0.2793064024390244 0  0.34375 0.3032389320646208 0  1.894702181800738 0.1282910975492754 0  2.092797818199262 0.1282910975492754 0  1.85625 0.3075 0  0.61875 0.3075 0  0.61875 0.1025 0  0.3648540804333487 0.1240075933101478 0  0 0.3075 0  0 0.1025 0  2.099172119769978 0.25625 0  0.48125 0.09238439620688085 0  0.5781001037344399 0.2059284232365146 0  0.48125 0.3196743479159776 0  0.7265881057911006 0.3055240343720796 0  1.99375 0.08395950269330846 0  1.459960956013612 0.3075 0  1.569025960719943 0.2986889805672169 0  0.75625 0.08213100772579164 0  1.03125 0.3278689922742084 0  0.923871252904788 0.3078247185783941 0  1.959375 0.3126371951219512 0  1.749222215368287 0.1025 0  1.275777784631713 0.1025 0  2.2 0.1025 0  1.225938124459196 0.3075 0  1.550777784631713 0.1025 0  1.000777784631713 0.1025 0  1.44375 0.07430640243902442 0  1.16875 0.07430640243902437 0  1.899250267340833 0.2229966846119207 0  0.1020898364287272 0.3140258291809757 0  1.766482954545455 0.2934032012195123 0  0.3405058858996321 0.2119987970531874 0  0.7710785630958338 0.1710968191298857 0  1.046078563095834 0.2389031808701144 0  0.2 0.3400647632937836 0  1.421109702350723 0.2261157654379721 0  0.2800464974185557 0.08982544815605742 0  0.098916018031319 0.09171660955420841 0  2.13125 0 0  2.118919042110979 0.3422084711244843 0  1.30625 0.41 0  0.89375 0 0  1.597888256393107 0.2173787389261347 0  0.20625 0 0  1.829299675393195 0.07400700849299596 0  1.71875 0.41 0  1.16875 0.41 0  2.038220665644273 0.332420740103091 0  0.34375 0 0  0.417496017710808 0.2696595573092803 0  0.2 0.07687845740457822 0  0.9295982307099278 0.1343158415898188 0  0.07390688010811153 0.1697064032433452 0  0.5238366813727013 0.2578302467013575 0  0.05452951551825875 0.25625 0  0.5229630068078351 0.1548816096928243 0  1.452769549894695 0.1548122580621249 0  1.369219062229598 0.07430640243902442 0  1.30625 0 0  0.8504409521244898 0.3356935975609756 0  0.8821881244591965 0.205 0  1.720943423819132 0.1714577452753128 0  1.157188124459196 0.205 0  1.094219062229598 0.07430640243902437 0  1.03125 0 0  1.304056576180868 0.1714577452753128 0  1.67579304192913 0.07430640243902437 0  0.2751941921308361 0.3346083473122598 0  1.209670467133757 0.1362100266964769 0  1.025335513626278 0.1700681449722324 0  0.7562500000000001 0.41 0  1.58125 0 0  0.7567170593862014 0.2409196493502535 0  0.6926714215682891 0.1272249611432207 0  0.4139715849905988 0.3397932387114203 0  0.9840787304190477 0.2717749043358119 0  0.06875000000000001 0.41 0  0 0.35875 0  0.9281250000000001 0.06276726142697993 0  0.5507396469029935 0.3219409231578227 0  0.5504468037989405 0.09136885600634273 0  1.58125 0.41 0  1.631724228912893 0.3381867502687533 0  1.825608881788174 0.14499488549201 0  1.85625 0 0  1.44375 0 0  1.44375 0.41 0  1.85625 0.41 0  2.13125 0.41 0  0.7562500000000001 0 0  0.89375 0.41 0  0.4812500000000001 0 0  0.34375 0.41 0  0.4812500000000001 0.41 0  0.20625 0.41 0  0.06875000000000001 0 0  1.16875 0 0  0.61875 0 0  0.61875 0.41 0  1.03125 0.41 0  1.71875 0 0  1.99375 0 0  1.99375 0.41 0  1.340625 0.3489494290853124 0  1.134375 0.3489494290853123 0  1.700180620188976 0.3438659752031281 0  2.135782184673599 0.07126652247502523 0  1.668441847249787 0.2129203728327609 0  1.295782514339747 0.2378437748815763 0  0.8233075729931248 0.06842334294821524 0  1.409375 0.3520314716057996 0  0.403505597322782 0.182067236678212 0  0.378125 0.05794951541303489 0  0.3043468223249023 0.1518321115979534 0  2.129248544730567 0.1906135162504124 0  2.060771381434487 0.1989445750470348 0  2.013252586573865 0.1496169464686054 0  1.942766402200229 0.1734448904596831 0  1.895522487186454 0.06076163953489683 0  2.069553871656643 0.06605731020975725 0  1.274680914880868 0.3520219391081363 0  1.614713220494657 0.09473434380863296 0  0.7899021319497519 0.3149123934144827 0  0.69518737419149 0.0634051089053758 0  0.2971740475496061 0.2592172353407536 0  1.72990325744076 0.2380068107952482 0  1.356580098625191 0.2120393231351682 0  2.034370752044885 0.2668681600792073 0  1.51768709249349 0.3426260931494756 0  1.561883724969884 0.1650446847858835 0  1.197344062229598 0.2523725417393646 0  1.804085235518364 0.3468178408964637 0  1.817887819205233 0.2589243285818559 0  1.905897727272727 0.3485060975609756 0  0.6719798073392919 0.2688965171178177 0  0 0.05125 0  0.653125 0.35875 0  0.6396896119294488 0.1627615407790282 0  0.4274150154087412 0.1242548552168279 0  1.192836486056382 0.3562350748565544 0  0.8279124365364005 0.183856489168822 0  1.097485222388854 0.2083571153401724 0  1.28257088594801 0.2944411014911587 0  1.474860187679412 0.2504218616229368 0  1.406767003493824 0.2829282258560709 0  0.446875 0.04619219810344041 0  0.515625 0.04585361801037557 0  0.592043440706648 0.05125 0  1.845656689180403 0.1998310418452388 0  2.144958525570388 0.2909790873294231 0  0.6171090763650112 0.2492366900333857 0  2.2 0.15375 0  0.5145586920831158 0.3648371739579888 0  1.57794966442982 0.3540357145964566 0  0.721875 0.3633107922168974 0  0.0496154796471391 0.333125 0  0.5843750000000001 0.3662560860076676 0  0.5810878747760798 0.1474002776121195 0  1.508991196088596 0.1421783375065625 0  0.8840670607017558 0.2640994375393898 0  0.09776612425612034 0.2204896805326566 0  1.50436820029908 0.06143401634903343 0  1.223857000523521 0.0823554862453532 0  1.153316824384777 0.1289850171317837 0  2.148922302309752 0.1258841779285271 0  0.309375 0.04312325590431198 0  1.621993280276081 0.2841214267927899 0  1.550118654119087 0.2461998729100966 0  1.327182649291491 0.1216967252533594 0  1.051977450479407 0.1221382572915816 0  1.753125 0.04556020050186112 0  1.271875 0.04556020050186116 0  0.9816084133102366 0.05126138213476004 0  1.039051841454368 0.0572224914831029 0  0.9719230514536006 0.3480477870845102 0  1.94956388244759 0.1180512551534177 0  1.949997712993411 0.04965831614304109 0  1.771961817615021 0.1530278789497521 0  1.909246823951428 0.2812757146784527 0  0.2459536687882397 0.04668633953831142 0  1.948575539857022 0.2445328248721197 0  1.697271520964565 0.1233917627620729 0  0.7964897648514618 0.1211426571931604 0  1.065625 0.3689344961371042 0  1.085849084308977 0.3170853572226867 0  0.4702981435440001 0.260434880697798 0  1.577403511714593 0.05463601888079143 0  0.05622663515370135 0.05493816910862376 0  0.3267207591099919 0.3566194660323104 0  0.9003051618565143 0.3564049499960621 0  1.751571320346033 0.3651102912045228 0  0.1583785085108421 0.2994699345738728 0  0.1455283439499995 0.3542795598723423 0  2.2 0.35875 0  0.2347662494194072 0.298325008655211 0  0.1527284455616188 0.1065771775690181 0  0.1382139529076665 0.05427454456341477 0  0.8749341636311069 0.05110114999892954 0  0.643661668713109 0.05693499781019222 0  1.466879772203159 0.3611261772912453 0  1.990280163552011 0.3564754268533217 0  1.17471064520912 0.2990917256188288 0  0.5202693090594349 0.206382495511728 0  0 0.25625 0  2.2 0.25625 0  2.2 0.05125 0  0 0.15375 0  1.853978576207987 0.35875 0  0.9787513713939683 0.1487523696999336 0  0.240625 0.3722153812029779 0  1.515638456102889 0.2882700110184686 0  0.09048297387599738 0.3637717362208066 0  2.150453692751374 0.2387066338105111 0  1.323782677156475 0.04897634338873398 0  0.8074131292871642 0.3624701995505916 0  1.409375 0.03715320121951221 0  1.406484531114799 0.1087852750766809 0  1.134375 0.03715320121951218 0  1.627401732573545 0.04552157221025036 0  0.1170173172005315 0.1427610859166811 0  2.045405893604797 0.1105340662939892 0  1.255408269734577 0.1577307500159216 0  2.028125 0.03707597992059326 0  0.4743610090857199 0.1421513964721819 0  0.9354010469015898 0.250631300585664 0  0.04420832937638274 0.128125 0  0.8922386349349938 0.0992956419364831 0  0.1197849154434487 0.2663398672460083 0  1.248258025468107 0.2565907092181813 0  0.3746885856929528 0.370723531618974 0  1.203125 0.0366132337404304 0  0.5724622277005015 0.2751253816079333 0  0.3365425205162783 0.08395777655057959 0  2.072662025974815 0.2975086504196739 0  0.4581080832182547 0.3648371739579888 0  0.3874522734668214 0.2295447548840689 0  0.7827853612484443 0.04106550386289586 0  1.887722846421017 0.1760882698830035 0  1.472640588990488 0.1118278026240017 0  1.865937103925594 0.2604137786483804 0  1.463913572748262 0.2030442564990043 0  1.376426316059077 0.3186741374914345 0  0.6641993820150034 0.3141688596240831 0  0.2943117490824315 0.2130987422685822 0  0.3478153998082709 0.1666571081082676 0  0.3427990510599805 0.2575950027870776 0  0.7997118993855807 0.2216171933356366 0  
[...]
<PointData  Vectors="f_31"> 
<DataArray  type="Float64"  Name="f_31"  NumberOfComponents="3" format="ascii">2.1596686006984205e-06 1.0706972054913417e-07 0.0000000000000000e+00  -2.2200353986138539e-06 2.5562404545514798e-10 0.0000000000000000e+00  3.9370514193932690e-06 -1.8887892148131407e-09 0.0000000000000000e+00  -1.7778529147090692e-05 -1.0246819652177922e-07 0.0000000000000000e+00  -1.7043897682726973e-05 2.9124479805254457e-06 0.0000000000000000e+00  -7.2574871299855793e-06 1.4788009767074454e-05 0.0000000000000000e+00  -8.5096405572500470e-06 1.9732612808738894e-05 0.0000000000000000e+00  -1.2407630929972606e-05 -8.8215168709543577e-06 0.0000000000000000e+00  -1.4619948449714047e-05 -6.7893405158572753e-06 0.0000000000000000e+00  -8.0728208095831775e-06 1.9722142624775866e-06 0.0000000000000000e+00  8.3629161290732603e-07 7.9521692223812667e-06 0.0000000000000000e+00  -6.5955465669789934e-06 -3.1996819114623057e-06 0.0000000000000000e+00  8.0430299173643935e-06 4.1368997276765266e-06 0.0000000000000000e+00  -1.6203612280107820e-05 3.2939790675635578e-06 0.0000000000000000e+00  -2.8883909483324773e-06 -6.7020415181378894e-08 0.0000000000000000e+00  -6.2664756199952356e-07 -6.6863346836253903e-08 0.0000000000000000e+00  1.5000041290282642e+00 1.3296029967061182e-06 0.0000000000000000e+00  -1.1756977239784016e-05 -3.6839626902671405e-07 0.0000000000000000e+00  -2.4390258028523236e-06 7.3432018079055469e-08 0.0000000000000000e+00  1.5006240637583886e-05 8.3582028545684754e-07 0.0000000000000000e+00  7.2739448175570599e-06 -6.2548295422209287e-07 0.0000000000000000e+00  3.4142716181029330e-07 1.1460960690597672e-07 0.0000000000000000e+00  -4.6217682540811286e-07 -6.8269481812525591e-09 0.0000000000000000e+00  9.8741621459684802e-07 4.9718107590714001e-08 0.0000000000000000e+00  -6.3018946972757316e-06 4.4807509675360166e-08 0.0000000000000000e+00  -3.9355828170178680e-06 -4.3625764743775482e-08 0.0000000000000000e+00  -9.6037606714216331e-07 1.3946626844672699e-08 0.0000000000000000e+00  -3.8234781070162920e-06 1.3531252271896713e-07 0.0000000000000000e+00  -3.0263271906728143e-06 -1.7551482699673326e-08 0.0000000000000000e+00  1.0914558257034142e+00 4.7155896674346541e-05 0.0000000000000000e+00  1.0913683039922111e+00 1.6817692653251163e-05 0.0000000000000000e+00  1.0904942921110632e+00 -2.5560363744904142e-03 0.0000000000000000e+00  1.0912909600668905e+00 -1.8986071091751282e-04 0.0000000000000000e+00  1.0911131189261583e+00 -2.6112178065366485e-05 0.0000000000000000e+00  1.0914929103762152e+00 1.0358605562981131e-04 0.0000000000000000e+00  9.8168886701984592e-01 -2.8705245495468171e-02 0.0000000000000000e+00  1.0912457487292706e+00 -8.1613323928842354e-06 0.0000000000000000e+00  -1.5577781311111393e-07 3.1413780945467482e-08 0.0000000000000000e+00  -1.5864600814335414e-06 -6.1067433952631575e-08 0.0000000000000000e+00  1.0909244777983020e+00 5.4910250560824971e-05 0.0000000000000000e+00  -3.9999098179080786e-06 -1.4631826719893931e-07 0.0000000000000000e+00  -3.6895941279159507e-06 3.1646896428359820e-07 0.0000000000000000e+00  -6.5998584828522118e-06 -2.1916808713770592e-09 0.0000000000000000e+00  1.0913667653341783e+00 9.2877691926515851e-05 0.0000000000000000e+00  -1.9966118302337739e-06 9.4112030998921974e-08 0.0000000000000000e+00  -4.5198151758795590e-06 -9.9142852037200085e-09 0.0000000000000000e+00  3.0700946982818321e-07 3.7602750614823870e-08 0.0000000000000000e+00  1.0916750394197072e+00 -6.5974801350534565e-04 0.0000000000000000e+00  -2.7731855227516958e-06 -4.4703404978036674e-08 0.0000000000000000e+00  2.6665823572315596e-06 -1.1318152767597056e-07 0.0000000000000000e+00  2.8431367341249988e-06 3.2631511968702689e-08 0.0000000000000000e+00  -7.4921003147209418e-06 2.7489929216943558e-08 0.0000000000000000e+00  -3.8360032001500061e-06 -1.1384677730487324e-06 0.0000000000000000e+00  -3.1398981610942212e-06 1.5329446852611872e-06 0.0000000000000000e+00  3.1674698247624876e-07 3.0751667804168639e-08 0.0000000000000000e+00  1.0911307028919759e+00 -8.4661756515982665e-05 0.0000000000000000e+00  -2.4672574832619002e-06 -1.1173747571472790e-07 0.0000000000000000e+00  1.0913929849977950e+00 -5.4348147399333443e-05 0.0000000000000000e+00  1.0912321423365718e+00 -2.4172190444515076e-05 0.0000000000000000e+00  1.0911790999241933e+00 9.3500988268186212e-06 0.0000000000000000e+00  1.0910636864253618e+00 -4.8706625146403419e-04 0.0000000000000000e+00  1.0914533176850574e+00 -6.3130949567848601e-05 0.0000000000000000e+00  1.6528548025227583e+00 -2.5541713069098060e-01 0.0000000000000000e+00  1.0913576276714858e+00 -1.2372935591729614e-04 0.0000000000000000e+00  1.0913659186396851e+00 4.9309351144644610e-05 0.0000000000000000e+00  1.0911274735267054e+00 1.5870628580284089e-04 0.0000000000000000e+00  1.0979090064999266e+00 -6.2394000274567868e-03 0.0000000000000000e+00  1.0904286607695872e+00 4.4739194064058463e-04 0.0000000000000000e+00  1.4335709724150703e+00 4.3962446438001818e-01 0.0000000000000000e+00  1.1249989585627522e+00 6.2115026569423623e-07 0.0000000000000000e+00  1.1249900642949560e+00 9.3459241089093267e-07 0.0000000000000000e+00  1.0913085674795244e+00 1.0223574390929526e-06 0.0000000000000000e+00  1.1349340428991754e+00 5.1359201923699582e-02 0.0000000000000000e+00  1.0807459569258639e+00 -7.1777177199876929e-03 0.0000000000000000e+00  1.1609727044493789e+00 -5.9225183126528372e-02 0.0000000000000000e+00  1.0930404324068947e+00 -1.1723302934141175e-03 0.0000000000000000e+00  1.0909884092478239e+00 1.0706834916537208e-04 0.0000000000000000e+00  1.0912169168379433e+00 1.9050287871064125e-04 0.0000000000000000e+00  1.0909196178792386e+00 2.9038203464415277e-05 0.0000000000000000e+00  1.0899042360654303e+00 -7.6514093026172245e-04 0.0000000000000000e+00  1.0902746889426342e+00 1.3946927063826454e-04 0.0000000000000000e+00  1.0914781984083441e+00 -7.3166605752461182e-05 0.0000000000000000e+00  1.0912765589061582e+00 4.4681151081202732e-05 0.0000000000000000e+00  1.0907824514087860e+00 -5.7316276518592527e-05 0.0000000000000000e+00  1.0913220649678013e+00 -5.9444398808056256e-05 0.0000000000000000e+00  1.0909174555800811e+00 7.6023146293734261e-05 0.0000000000000000e+00  1.0913231203246940e+00 3.1074938325996568e-05 0.0000000000000000e+00  1.0910275840197963e+00 9.0204226018701617e-05 0.0000000000000000e+00  1.0913894667635937e+00 -1.4156775664482147e-04 0.0000000000000000e+00  1.0903977583088178e+00 -2.8682655465016245e-04 0.0000000000000000e+00  1.0900487723828114e+00 2.1514233505965263e-05 0.0000000000000000e+00  1.0912653514250295e+00 1.8849909141808174e-06 0.0000000000000000e+00  1.1858405658292106e+00 2.4661840578056332e-01 0.0000000000000000e+00  1.0912539433013080e+00 -9.4106015272654516e-05 0.0000000000000000e+00  -3.5963659746273563e-01 -1.6346289853498183e-01 0.0000000000000000e+00  1.0909195141999202e+00 -1.0813627361299237e-03 0.0000000000000000e+00  1.0913539845538522e+00 -5.3237149065403561e-05 0.0000000000000000e+00  1.3986424199909586e+00 2.0098952460465094e-01 0.0000000000000000e+00  1.0912913595491560e+00 3.0531999134662595e-05 0.0000000000000000e+00  1.8482548896093529e+00 1.8431307594908665e-02 0.0000000000000000e+00  1.1433261895951414e+00 -2.4496959712886920e-01 0.0000000000000000e+00  -2.3822503726938886e-07 -1.4990293545180234e-07 0.0000000000000000e+00  1.0890470009317916e+00 4.1375717106323915e-04 0.0000000000000000e+00  -2.4192047792936792e-06 5.5829229274164117e-08 0.0000000000000000e+00  -7.8153398411899170e-06 -3.9450197168906535e-08 0.0000000000000000e+00  1.0914689620791851e+00 4.4567476736934410e-06 0.0000000000000000e+00  1.2279569633485410e-05 -4.9175851149682511e-06 0.0000000000000000e+00  1.0901836691081994e+00 -6.0239464183232932e-05 0.0000000000000000e+00  -4.9095405648542416e-06 -7.2253235614852863e-08 0.0000000000000000e+00  -2.3399330252102464e-06 5.7076789863266398e-08 0.0000000000000000e+00  1.0902516501996793e+00 5.7577399688603389e-05 0.0000000000000000e+00  -3.5871767223469119e-06 3.1925872716102811e-06 0.0000000000000000e+00  1.1245870268541143e+00 -2.6795991768719246e-01 0.0000000000000000e+00  1.5375211300978162e+00 -2.4702604720579341e-01 0.0000000000000000e+00  1.0911804921202644e+00 -2.1351872103534067e-04 0.0000000000000000e+00  1.3376337290130336e+00 -1.0741608021812021e-01 0.0000000000000000e+00  1.0836308825161545e+00 -4.1065447134633989e-02 0.0000000000000000e+00  1.3734775549002147e+00 1.2442890933607079e-01 0.0000000000000000e+00  1.0693171553006136e+00 2.1620146737400221e-02 0.0000000000000000e+00  1.0912903505184530e+00 3.4261615451141747e-05 0.0000000000000000e+00  1.0893739559427962e+00 8.7786006199689229e-05 0.0000000000000000e+00  -5.8648030371969979e-07 4.4085449949399607e-08 0.0000000000000000e+00  1.0903625867347280e+00 -4.0401007799082864e-04 0.0000000000000000e+00  1.0912847276454827e+00 -4.0108257839372103e-04 0.0000000000000000e+00  1.0912900505239376e+00 1.7019130859083492e-05 0.0000000000000000e+00  1.0910945213491254e+00 -2.9039908734386732e-05 0.0000000000000000e+00  1.0903497977845289e+00 -9.8913064475371134e-05 0.0000000000000000e+00  -4.2535308425477837e-06 1.1552639094755111e-07 0.0000000000000000e+00  1.0912572056355243e+00 3.9955823844016850e-05 0.0000000000000000e+00  1.0895380350479151e+00 -4.1166826298889462e-04 0.0000000000000000e+00  1.5939502122953360e+00 3.9418331014252281e-02 0.0000000000000000e+00  1.0912387901462361e+00 7.2965110010518765e-06 0.0000000000000000e+00  1.0912240323203082e+00 -1.2683886606737327e-04 0.0000000000000000e+00  -1.3778982259076693e-06 1.8994076913397121e-08 0.0000000000000000e+00  -1.4899450645533874e-05 -6.2674817269842246e-08 0.0000000000000000e+00  1.0917562930493929e+00 -1.3968527837456336e-03 0.0000000000000000e+00  1.0902572418353225e+00 -1.1370132888195142e-03 0.0000000000000000e+00  1.2817913098795135e+00 -1.0230465906579903e-01 0.0000000000000000e+00  1.0914082445154785e+00 -1.1638490262927893e-04 0.0000000000000000e+00  -5.2377838249253291e-06 -1.6121545040146695e-06 0.0000000000000000e+00  6.5625087018533246e-01 1.7488690758070509e-07 0.0000000000000000e+00  1.0855865175674921e+00 4.4389561886079722e-05 0.0000000000000000e+00  1.1143427239473991e+00 -1.5721795936744991e-02 0.0000000000000000e+00  1.0994332838508722e+00 8.7688356391755311e-03 0.0000000000000000e+00  -6.5162145966743979e-06 4.1641934837086916e-08 0.0000000000000000e+00  1.0894370102413276e+00 3.4662536889547302e-04 0.0000000000000000e+00  1.0914014649068053e+00 -1.1754557630896074e-05 0.0000000000000000e+00  -4.4478734748133036e-06 1.6091361038619254e-07 0.0000000000000000e+00  -1.1575013042269423e-05 2.7770562327900831e-08 0.0000000000000000e+00  -5.9945918277203323e-06 -1.4785331134349860e-08 0.0000000000000000e+00  8.4894712080555996e-07 -4.2235585588667184e-08 0.0000000000000000e+00  -3.0955061290901734e-06 7.1661791187609347e-08 0.0000000000000000e+00  -1.0118589471894040e-06 -1.2541894899122592e-08 0.0000000000000000e+00  1.9571284604615556e-07 8.3539673746194466e-08 0.0000000000000000e+00  -1.0370914141461120e-05 -1.2581768588499915e-07 0.0000000000000000e+00  -3.4710381557104378e-07 -3.3376601839677452e-06 0.0000000000000000e+00  -1.6978093686812728e-05 3.9601779390176611e-07 0.0000000000000000e+00  9.0943783667430590e-06 5.2785009371759828e-06 0.0000000000000000e+00  -2.3594466803682600e-06 1.5918898813998851e-06 0.0000000000000000e+00  -7.1898379209937548e-07 5.8608026131054261e-08 0.0000000000000000e+00  -7.7750988959967920e-06 -1.5112846948218238e-07 0.0000000000000000e+00  -6.1948118724303972e-06 -2.8627066057184144e-08 0.0000000000000000e+00  -6.7117043827668167e-07 -2.1252863581203540e-08 0.0000000000000000e+00  -8.7217535869308368e-06 2.7750680288548244e-08 0.0000000000000000e+00  -2.3382429146182938e-06 -9.3723148893538370e-09 0.0000000000000000e+00  -8.6008243446923343e-07 -5.8219846018513220e-10 0.0000000000000000e+00  1.0830093028247794e+00 2.6952741994860154e-04 0.0000000000000000e+00  1.0848884931721361e+00 1.6774798390400297e-04 0.0000000000000000e+00  1.0872701755029877e+00 2.2301592814039751e-04 0.0000000000000000e+00  1.0891185454359922e+00 -6.8324515063648204e-05 0.0000000000000000e+00  1.0913867262596029e+00 3.5882597503008986e-06 0.0000000000000000e+00  1.0911966083557665e+00 -4.4654558004531263e-05 0.0000000000000000e+00  1.0875815329405354e+00 -1.0079962560597064e-03 0.0000000000000000e+00  1.0823155806009437e+00 5.4834559879425387e-04 0.0000000000000000e+00  6.4982192672358963e-01 1.8838607897266196e-01 0.0000000000000000e+00  1.3279806123214044e+00 1.1214937582322532e-01 0.0000000000000000e+00  6.4004068528097324e-01 8.3356120427948197e-02 0.0000000000000000e+00  1.0913312686780594e+00 8.3456560264075905e-05 0.0000000000000000e+00  1.0913638046221334e+00 1.7655324375861644e-05 0.0000000000000000e+00  1.0913118699689872e+00 3.9515750040201856e-06 0.0000000000000000e+00  1.0912531698618759e+00 -2.0361973208087994e-05 0.0000000000000000e+00  1.0838700625255320e+00 -3.2020307324938786e-04 0.0000000000000000e+00  1.0872674176777029e+00 7.8003390658514572e-06 0.0000000000000000e+00  1.0821314382530098e+00 -3.4759642799657500e-05 0.0000000000000000e+00  1.0910216450098669e+00 -7.3680277623164054e-05 0.0000000000000000e+00  1.0918890413840066e+00 -4.4789551599273706e-04 0.0000000000000000e+00  1.0847972553620886e+00 -1.1317930178331975e-03 0.0000000000000000e+00  1.0277026003334280e+00 -2.0337344838938669e-02 0.0000000000000000e+00  1.0913295260399822e+00 -1.1612162306802848e-05 0.0000000000000000e+00  1.0912164496295642e+00 -2.7395675415963090e-06 0.0000000000000000e+00  1.0913370826162263e+00 -2.1156670898252489e-05 0.0000000000000000e+00  1.0875722759973756e+00 5.9683057803736062e-04 0.0000000000000000e+00  1.0913354320695579e+00 2.2923806718675674e-05 0.0000000000000000e+00  1.0912065207881663e+00 -1.5578278740864143e-05 0.0000000000000000e+00  1.0873425929367750e+00 1.3499683731690919e-04 0.0000000000000000e+00  1.0913701692410298e+00 4.9265559332654849e-05 0.0000000000000000e+00  1.0852109402056653e+00 1.9983642778235395e-04 0.0000000000000000e+00  1.0929209252173293e+00 -3.7015236414007320e-03 0.0000000000000000e+00  6.5624836851590673e-01 1.3597963614393978e-07 0.0000000000000000e+00  1.0760846427362314e+00 -2.6362066797562512e-04 0.0000000000000000e+00  1.0885401297608843e+00 -1.4033805272755091e-03 0.0000000000000000e+00  1.1259611574261386e+00 1.9543766098047943e-01 0.0000000000000000e+00  1.0772376811322628e+00 9.0001377169522849e-05 0.0000000000000000e+00  1.0910647470387274e+00 -6.7936411964592534e-04 0.0000000000000000e+00  1.0911476032060894e+00 -7.5341054881021734e-05 0.0000000000000000e+00  1.0913164744532586e+00 -1.1597497876960682e-04 0.0000000000000000e+00  1.0912314429707761e+00 5.6848690640627318e-05 0.0000000000000000e+00  1.0914038412562594e+00 5.0320405193532230e-05 0.0000000000000000e+00  1.1361201270323900e+00 2.3061990752672967e-02 0.0000000000000000e+00  1.0660938187535449e+00 -4.8331017907441336e-03 0.0000000000000000e+00  1.0708894218104266e+00 -3.2030712662964801e-03 0.0000000000000000e+00  1.0912994781345362e+00 1.9116618787261720e-05 0.0000000000000000e+00  1.0913434285307082e+00 1.3998446697389421e-04 0.0000000000000000e+00  1.0908300165726683e+00 -8.1705252813708360e-03 0.0000000000000000e+00  1.0912677598559364e+00 2.4911707431767293e-04 0.0000000000000000e+00  1.0819646343747920e+00 5.9097074038068147e-04 0.0000000000000000e+00  1.0803796394788803e+00 1.1386960718293492e-04 0.0000000000000000e+00  1.0572308508197614e+00 8.3906978166549168e-04 0.0000000000000000e+00  9.4100069332510539e-01 9.2025659039292079e-02 0.0000000000000000e+00  1.0528117415345670e+00 1.1759148581969665e-03 0.0000000000000000e+00  1.0852445644255588e+00 3.7453887365124501e-03 0.0000000000000000e+00  1.0912626045242859e+00 4.1815416232022148e-05 0.0000000000000000e+00  1.0915126966565361e+00 -3.5255102342157950e-04 0.0000000000000000e+00  1.2246047193367013e+00 1.6225927608599014e-01 0.0000000000000000e+00  1.0861371095243362e+00 -6.2162128901793907e-04 0.0000000000000000e+00  1.0907412822474170e+00 3.8351226829636995e-05 0.0000000000000000e+00  1.0912797648191641e+00 -1.1620570062894686e-05 0.0000000000000000e+00  1.0913561761091624e+00 2.6595329035937943e-05 0.0000000000000000e+00  1.2517683425690662e+00 8.9966765433624387e-03 0.0000000000000000e+00  1.0911202035084315e+00 -5.2348031049678204e-06 0.0000000000000000e+00  1.0911670740942836e+00 6.3347909863140790e-06 0.0000000000000000e+00  1.0913308024635551e+00 1.2114051025089375e-04 0.0000000000000000e+00  1.0911744316963021e+00 -1.7730571446455658e-04 0.0000000000000000e+00  1.0528499638210538e+00 9.0853110195437785e-04 0.0000000000000000e+00  1.0520292969849880e+00 -9.9030297520531383e-04 0.0000000000000000e+00  1.0738888948093881e+00 -9.0615036833978449e-06 0.0000000000000000e+00  1.0811939216189330e+00 -6.4385371927125541e-04 0.0000000000000000e+00  1.0855707553723726e+00 2.1603586866643314e-04 0.0000000000000000e+00  1.0912452707838125e+00 -6.1058268794084942e-05 0.0000000000000000e+00  1.0632729809680304e+00 -5.3802196751872103e-04 0.0000000000000000e+00  1.0914247135164061e+00 1.8125703097883910e-05 0.0000000000000000e+00  1.0913540160024395e+00 3.1525955499739484e-05 0.0000000000000000e+00  1.2712986982174888e+00 -7.5627454082021942e-02 0.0000000000000000e+00  1.0913005474826662e+00 -1.3264904558375759e-05 0.0000000000000000e+00  1.0913106628792926e+00 -6.4277682654819535e-05 0.0000000000000000e+00  1.0908431361936433e+00 -7.2665456299823242e-04 0.0000000000000000e+00  1.0286312128599309e+00 1.5827031894474736e-04 0.0000000000000000e+00  1.0912655882551268e+00 1.4590571449177384e-04 0.0000000000000000e+00  1.0739051446745280e+00 -1.0838354776823765e-01 0.0000000000000000e+00  1.0770321269367025e+00 5.2524701359028987e-04 0.0000000000000000e+00  7.3691989932039637e-01 -7.7575282190851316e-02 0.0000000000000000e+00  1.2745017183591068e+00 5.8636770056818286e-03 0.0000000000000000e+00  1.0741713131072674e+00 2.4332819548415871e-04 0.0000000000000000e+00  1.0494620491466431e+00 -1.4842654709184028e-03 0.0000000000000000e+00  1.5340137263923883e+00 4.5351166356783995e-01 0.0000000000000000e+00  1.0105816554535341e+00 1.5966644408540395e-01 0.0000000000000000e+00  1.0696476760937956e+00 5.9830674367314038e-04 0.0000000000000000e+00  1.9133419093813158e+00 1.9974707539809594e-01 0.0000000000000000e+00  1.4738240866962611e+00 -5.0263891559304774e-01 0.0000000000000000e+00  9.8552767090934190e-01 -1.7546729566190850e-01 0.0000000000000000e+00  1.0687235944518978e+00 -4.6162536493370908e-04 0.0000000000000000e+00  1.0773622415177140e+00 -1.4822603724165546e-03 0.0000000000000000e+00  1.0645685016964865e+00 5.0712191968643858e-04 0.0000000000000000e+00  1.0764946156550841e+00 2.5659456085595160e-04 0.0000000000000000e+00  1.0912908367230316e+00 -7.9255287674414901e-05 0.0000000000000000e+00  1.0546518271162717e+00 -1.4139766098403289e-02 0.0000000000000000e+00  1.4062435031887262e+00 1.1152999817682222e-06 0.0000000000000000e+00  1.0914165278989421e+00 9.3159012341506743e-05 0.0000000000000000e+00  1.0705802022557731e+00 -1.0798846831374393e-03 0.0000000000000000e+00  1.4062427582535979e+00 1.0113903593281639e-06 0.0000000000000000e+00  1.0715629282421124e+00 6.8919114875369027e-04 0.0000000000000000e+00  1.0911596075714829e+00 -1.3130287976074637e-04 0.0000000000000000e+00  1.0456331223927373e+00 7.3418298117463435e-02 0.0000000000000000e+00  1.0911402925553355e+00 7.9894653952866594e-05 0.0000000000000000e+00  7.1375819966126164e-01 9.0611942475873938e-02 0.0000000000000000e+00  1.0913352215217051e+00 8.1166445954598650e-05 0.0000000000000000e+00  1.0644732436959392e+00 1.3640293710392323e-04 0.0000000000000000e+00  1.0599016874447895e+00 1.4102738975437038e-04 0.0000000000000000e+00  9.9814158190989577e-01 6.6856812135428377e-05 0.0000000000000000e+00  1.0914376241060801e+00 3.6714462292651420e-05 0.0000000000000000e+00  1.0001917411446051e+00 -1.8297466478803341e-04 0.0000000000000000e+00  1.0515791948253019e+00 -3.6670