<?xml version="1.0"?>
<VTKFile type="UnstructuredGrid"  version="0.1"  >
<UnstructuredGrid>
<Piece  NumberOfPoints="2446" NumberOfCells="4585">
<Points>
<DataArray  type="Float64"  NumberOfComponents="3"  format="ascii">0 0.41 0  0 0 0  2.2 0 0  2.2 0.41 0  0.2404508497187474 0.2293892626146237 0  0.25 0.2 0  0.2404508497187474 0.1706107373853764 0  0.2154508497187474 0.1524471741852423 0  0.1845491502812526 0.1524471741852423 0  0.1595491502812526 0.1706107373853764 0  0.15 0.2 0  0.1595491502812526 0.2293892626146237 0  0.1845491502812527 0.2475528258147577 0  0.2154508497187474 0.2475528258147577 0  1.1 0 0  1.1 0.41 0  0 0.205 0  0.55 0 0  0.55 0.41 0  0.275 0 0  0.275 0.41 0  1.65 0.41 0  1.65 0 0  0.8250000000000001 0.41 0  0.8250000000000001 0 0  1.375 0 0  1.375 0.41 0  1.925 0 0  1.925 0.41 0  1.5125 0.205 0  1.7875 0.205 0  0.6875 0.205 0  0.9625000000000001 0.205 0  1.2375 0.205 0  2.2 0.205 0  0.4687002074688797 0.2068568464730291 0  1.99375 0.2152743902439024 0  2.0625 0 0  2.0625 0.41 0  2.2 0.3075 0  0.4125 0 0  0.4125 0.41 0  1.7875 0.41 0  1.375 0.1486128048780488 0  1.5125 0 0  1.7875 0 0  1.5125 0.41 0  0.8250000000000001 0.2613871951219511 0  0.9625000000000001 0.41 0  0.9625000000000001 0 0  0.6875 0.41 0  0.6875 0 0  0.1375 0 0  0.1375 0.41 0  1.2375 0 0  1.1 0.1486128048780487 0  1.2375 0.41 0  1.65 0.1486128048780487 0  1.126715909090909 0.2793064024390244 0  1.676715909090909 0.2793064024390244 0  0.8517159090909092 0.1306935975609756 0  1.348284090909091 0.2793064024390244 0  0.34375 0.3032389320646208 0  1.894702181800738 0.1282910975492754 0  2.092797818199262 0.1282910975492754 0  1.85625 0.3075 0  0.61875 0.3075 0  0.61875 0.1025 0  0.3648540804333487 0.1240075933101478 0  0 0.3075 0  0 0.1025 0  2.099172119769978 0.25625 0  0.48125 0.09238439620688085 0  0.5781001037344399 0.2059284232365146 0  0.48125 0.3196743479159776 0  0.7265881057911006 0.3055240343720796 0  1.99375 0.08395950269330846 0  1.459960956013612 0.3075 0  1.569025960719943 0.2986889805672169 0  0.75625 0.08213100772579164 0  1.03125 0.3278689922742084 0  0.923871252904788 0.3078247185783941 0  1.959375 0.3126371951219512 0  1.749222215368287 0.1025 0  1.275777784631713 0.1025 0  2.2 0.1025 0  1.225938124459196 0.3075 0  1.550777784631713 0.1025 0  1.000777784631713 0.1025 0  1.44375 0.07430640243902442 0  1.16875 0.07430640243902437 0  1.899250267340833 0.2229966846119207 0  0.1020898364287272 0.3140258291809757 0  1.766482954545455 0.2934032012195123 0  0.3405058858996321 0.2119987970531874 0  0.7710785630958338 0.1710968191298857 0  1.046078563095834 0.2389031808701144 0  0.2 0.3400647632937836 0  1.421109702350723 0.2261157654379721 0  0.2800464974185557 0.08982544815605742 0  0.098916018031319 0.09171660955420841 0  2.13125 0 0  2.118919042110979 0.3422084711244843 0  1.30625 0.41 0  0.89375 0 0  1.597888256393107 0.2173787389261347 0  0.20625 0 0  1.829299675393195 0.07400700849299596 0  1.71875 0.41 0  1.16875 0.41 0  2.038220665644273 0.332420740103091 0  0.34375 0 0  0.417496017710808 0.2696595573092803 0  0.2 0.07687845740457822 0  0.9295982307099278 0.1343158415898188 0  0.07390688010811153 0.1697064032433452 0  0.5238366813727013 0.2578302467013575 0  0.05452951551825875 0.25625 0  0.5229630068078351 0.1548816096928243 0  1.452769549894695 0.1548122580621249 0  1.369219062229598 0.07430640243902442 0  1.30625 0 0  0.8504409521244898 0.3356935975609756 0  0.8821881244591965 0.205 0  1.720943423819132 0.1714577452753128 0  1.157188124459196 0.205 0  1.094219062229598 0.07430640243902437 0  1.03125 0 0  1.304056576180868 0.1714577452753128 0  1.67579304192913 0.07430640243902437 0  0.2751941921308361 0.3346083473122598 0  1.209670467133757 0.1362100266964769 0  1.025335513626278 0.1700681449722324 0  0.7562500000000001 0.41 0  1.58125 0 0  0.7567170593862014 0.2409196493502535 0  0.6926714215682891 0.1272249611432207 0  0.4139715849905988 0.3397932387114203 0  0.9840787304190477 0.2717749043358119 0  0.06875000000000001 0.41 0  0 0.35875 0  0.9281250000000001 0.06276726142697993 0  0.5507396469029935 0.3219409231578227 0  0.5504468037989405 0.09136885600634273 0  1.58125 0.41 0  1.631724228912893 0.3381867502687533 0  1.825608881788174 0.14499488549201 0  1.85625 0 0  1.44375 0 0  1.44375 0.41 0  1.85625 0.41 0  2.13125 0.41 0  0.7562500000000001 0 0  0.89375 0.41 0  0.4812500000000001 0 0  0.34375 0.41 0  0.4812500000000001 0.41 0  0.20625 0.41 0  0.06875000000000001 0 0  1.16875 0 0  0.61875 0 0  0.61875 0.41 0  1.03125 0.41 0  1.71875 0 0  1.99375 0 0  1.99375 0.41 0  1.340625 0.3489494290853124 0  1.134375 0.3489494290853123 0  1.700180620188976 0.3438659752031281 0  2.135782184673599 0.07126652247502523 0  1.668441847249787 0.2129203728327609 0  1.295782514339747 0.2378437748815763 0  0.8233075729931248 0.06842334294821524 0  1.409375 0.3520314716057996 0  0.403505597322782 0.182067236678212 0  0.378125 0.05794951541303489 0  0.3043468223249023 0.1518321115979534 0  2.129248544730567 0.1906135162504124 0  2.060771381434487 0.1989445750470348 0  2.013252586573865 0.1496169464686054 0  1.942766402200229 0.1734448904596831 0  1.895522487186454 0.06076163953489683 0  2.069553871656643 0.06605731020975725 0  1.274680914880868 0.3520219391081363 0  1.614713220494657 0.09473434380863296 0  0.7899021319497519 0.3149123934144827 0  0.69518737419149 0.0634051089053758 0  0.2971740475496061 0.2592172353407536 0  1.72990325744076 0.2380068107952482 0  1.356580098625191 0.2120393231351682 0  2.034370752044885 0.2668681600792073 0  1.51768709249349 0.3426260931494756 0  1.561883724969884 0.1650446847858835 0  1.197344062229598 0.2523725417393646 0  1.804085235518364 0.3468178408964637 0  1.817887819205233 0.2589243285818559 0  1.905897727272727 0.3485060975609756 0  0.6719798073392919 0.2688965171178177 0  0 0.05125 0  0.653125 0.35875 0  0.6396896119294488 0.1627615407790282 0  0.4274150154087412 0.1242548552168279 0  1.192836486056382 0.3562350748565544 0  0.8279124365364005 0.183856489168822 0  1.097485222388854 0.2083571153401724 0  1.28257088594801 0.2944411014911587 0  1.474860187679412 0.2504218616229368 0  1.406767003493824 0.2829282258560709 0  0.446875 0.04619219810344041 0  0.515625 0.04585361801037557 0  0.592043440706648 0.05125 0  1.845656689180403 0.1998310418452388 0  2.144958525570388 0.2909790873294231 0  0.6171090763650112 0.2492366900333857 0  2.2 0.15375 0  0.5145586920831158 0.3648371739579888 0  1.57794966442982 0.3540357145964566 0  0.721875 0.3633107922168974 0  0.0496154796471391 0.333125 0  0.5843750000000001 0.3662560860076676 0  0.5810878747760798 0.1474002776121195 0  1.508991196088596 0.1421783375065625 0  0.8840670607017558 0.2640994375393898 0  0.09776612425612034 0.2204896805326566 0  1.50436820029908 0.06143401634903343 0  1.223857000523521 0.0823554862453532 0  1.153316824384777 0.1289850171317837 0  2.148922302309752 0.1258841779285271 0  0.309375 0.04312325590431198 0  1.621993280276081 0.2841214267927899 0  1.550118654119087 0.2461998729100966 0  1.327182649291491 0.1216967252533594 0  1.051977450479407 0.1221382572915816 0  1.753125 0.04556020050186112 0  1.271875 0.04556020050186116 0  0.9816084133102366 0.05126138213476004 0  1.039051841454368 0.0572224914831029 0  0.9719230514536006 0.3480477870845102 0  1.94956388244759 0.1180512551534177 0  1.949997712993411 0.04965831614304109 0  1.771961817615021 0.1530278789497521 0  1.909246823951428 0.2812757146784527 0  0.2459536687882397 0.04668633953831142 0  1.948575539857022 0.2445328248721197 0  1.697271520964565 0.1233917627620729 0  0.7964897648514618 0.1211426571931604 0  1.065625 0.3689344961371042 0  1.085849084308977 0.3170853572226867 0  0.4702981435440001 0.260434880697798 0  1.577403511714593 0.05463601888079143 0  0.05622663515370135 0.05493816910862376 0  0.3267207591099919 0.3566194660323104 0  0.9003051618565143 0.3564049499960621 0  1.751571320346033 0.3651102912045228 0  0.1583785085108421 0.2994699345738728 0  0.1455283439499995 0.3542795598723423 0  2.2 0.35875 0  0.2347662494194072 0.298325008655211 0  0.1527284455616188 0.1065771775690181 0  0.1382139529076665 0.05427454456341477 0  0.8749341636311069 0.05110114999892954 0  0.643661668713109 0.05693499781019222 0  1.466879772203159 0.3611261772912453 0  1.990280163552011 0.3564754268533217 0  1.17471064520912 0.2990917256188288 0  0.5202693090594349 0.206382495511728 0  0 0.25625 0  2.2 0.25625 0  2.2 0.05125 0  0 0.15375 0  1.853978576207987 0.35875 0  0.9787513713939683 0.1487523696999336 0  0.240625 0.3722153812029779 0  1.515638456102889 0.2882700110184686 0  0.09048297387599738 0.3637717362208066 0  2.150453692751374 0.2387066338105111 0  1.323782677156475 0.04897634338873398 0  0.8074131292871642 0.3624701995505916 0  1.409375 0.03715320121951221 0  1.406484531114799 0.1087852750766809 0  1.134375 0.03715320121951218 0  1.627401732573545 0.04552157221025036 0  0.1170173172005315 0.1427610859166811 0  2.045405893604797 0.1105340662939892 0  1.255408269734577 0.1577307500159216 0  2.028125 0.03707597992059326 0  0.4743610090857199 0.1421513964721819 0  0.9354010469015898 0.250631300585664 0  0.04420832937638274 0.128125 0  0.8922386349349938 0.0992956419364831 0  0.1197849154434487 0.2663398672460083 0  1.248258025468107 0.2565907092181813 0  0.3746885856929528 0.370723531618974 0  1.203125 0.0366132337404304 0  0.5724622277005015 0.2751253816079333 0  0.3365425205162783 0.08395777655057959 0  2.072662025974815 0.2975086504196739 0  0.4581080832182547 0.3648371739579888 0  0.3874522734668214 0.2295447548840689 0  0.7827853612484443 0.04106550386289586 0  1.887722846421017 0.1760882698830035 0  1.472640588990488 0.1118278026240017 0  1.865937103925594 0.2604137786483804 0  1.463913572748262 0.2030442564990043 0  1.376426316059077 0.3186741374914345 0  0.6641993820150034 0.3141688596240831 0  0.2943117490824315 0.2130987422685822 0  0.3478153998082709 0.1666571081082676 0  0.3427990510599805 0.2575950027870776 0  0.7997118993855807 0.2216171933356366 0  
[...]
<PointData  Vectors="f_31"> 
<DataArray  type="Float64"  Name="f_31"  NumberOfComponents="3" format="ascii">2.2534505232008653e-06 4.6400128248048867e-08 0.0000000000000000e+00  -2.3099838607125006e-06 -1.0109108564738647e-08 0.0000000000000000e+00  3.6944596338699989e-06 -1.8936184873243946e-09 0.0000000000000000e+00  -1.6095392411919678e-05 -1.2558557138699403e-08 0.0000000000000000e+00  -3.2623285701511253e-06 -2.0314967825407652e-06 0.0000000000000000e+00  4.6281396291391792e-07 -1.6987010389183863e-05 0.0000000000000000e+00  3.6161436953990997e-06 -7.8750386156449546e-06 0.0000000000000000e+00  -7.7731476795020449e-06 4.3562867372004950e-06 0.0000000000000000e+00  -2.0675682588975917e-06 5.8480424538346886e-06 0.0000000000000000e+00  1.0724199601228301e-05 -1.5146047028762592e-06 0.0000000000000000e+00  -3.0761779746615304e-07 -4.3889015665690736e-06 0.0000000000000000e+00  -1.7222664116655439e-05 -2.7069952193258995e-06 0.0000000000000000e+00  5.6165792701599716e-06 8.8713617406669995e-06 0.0000000000000000e+00  -1.1032807247934743e-05 -2.3579249030180631e-07 0.0000000000000000e+00  -2.3825792887203305e-06 9.7121671817609635e-09 0.0000000000000000e+00  1.5252033202735099e-07 -9.9671749379433872e-09 0.0000000000000000e+00  1.5000043854464522e+00 -2.1659008907219011e-06 0.0000000000000000e+00  5.2739829838551158e-07 -3.3338932437041721e-06 0.0000000000000000e+00  8.8967038671917950e-06 5.2716760953540247e-07 0.0000000000000000e+00  3.8295725167383429e-06 3.6212327481874017e-07 0.0000000000000000e+00  -3.9128641996996616e-06 6.9825959329540699e-08 0.0000000000000000e+00  4.7320784958721572e-07 2.2007970333607164e-09 0.0000000000000000e+00  5.1131845484715736e-07 -1.0718284916105412e-08 0.0000000000000000e+00  -4.4917324220262485e-06 -6.8929862128076886e-08 0.0000000000000000e+00  -9.4864200764844723e-06 1.7851093486775871e-07 0.0000000000000000e+00  -3.6679747855002744e-06 2.1043567509181231e-09 0.0000000000000000e+00  -6.3841977630931044e-07 6.0772401242608128e-09 0.0000000000000000e+00  -2.7433563543480523e-06 1.1412318663876816e-08 0.0000000000000000e+00  -2.0107286921766025e-06 -2.9381408967785747e-09 0.0000000000000000e+00  1.1492414586676818e+00 2.6008957266132599e-05 0.0000000000000000e+00  1.1493706873423202e+00 2.9702791744251894e-05 0.0000000000000000e+00  1.1143803622887669e+00 6.4216506405500709e-02 0.0000000000000000e+00  1.1518952355159855e+00 -5.8681183907178368e-03 0.0000000000000000e+00  1.1489191001592445e+00 -2.9734644938710460e-04 0.0000000000000000e+00  1.1492753504189297e+00 -5.5966452726096818e-05 0.0000000000000000e+00  -1.6936710796633450e-01 -2.5167150064545718e-01 0.0000000000000000e+00  1.1492912126044104e+00 -4.3180984723921487e-05 0.0000000000000000e+00  3.8569529632589281e-07 2.3076586353330714e-09 0.0000000000000000e+00  -7.8770874433673641e-07 2.7193392849617440e-09 0.0000000000000000e+00  1.1457984910926433e+00 3.0691397159822433e-05 0.0000000000000000e+00  -3.7528141617651061e-06 4.8997100935681066e-07 0.0000000000000000e+00  3.6199738817599110e-06 -3.4669427417161542e-07 0.0000000000000000e+00  -5.6949173448596983e-06 -8.9494925941767456e-09 0.0000000000000000e+00  1.1491225371782614e+00 5.8614998893968015e-06 0.0000000000000000e+00  3.9038814038443127e-07 -5.7606206974240447e-09 0.0000000000000000e+00  -3.9750325612232134e-06 1.7126573359712530e-08 0.0000000000000000e+00  1.1594009118029253e-06 -4.8973620244904360e-09 0.0000000000000000e+00  1.2174203140037410e+00 3.4680012947137198e-02 0.0000000000000000e+00  -1.3497152454224705e-06 2.2433082563200574e-08 0.0000000000000000e+00  2.5763119066650742e-06 1.5078288732924064e-08 0.0000000000000000e+00  -6.4610504694601926e-07 2.4627696731997650e-07 0.0000000000000000e+00  -8.4023331948695953e-07 8.1525800155565198e-07 0.0000000000000000e+00  -3.6697376382767351e-06 6.3570578487584088e-07 0.0000000000000000e+00  -5.7201848486294767e-06 -5.3043513019168588e-07 0.0000000000000000e+00  3.8037137679842694e-07 -6.0674562558615347e-10 0.0000000000000000e+00  1.1483588304688350e+00 -1.2384966332587852e-03 0.0000000000000000e+00  -1.4424211987536340e-06 -5.4523206607154063e-09 0.0000000000000000e+00  1.1494157486585463e+00 5.7076328641559171e-05 0.0000000000000000e+00  1.1495602024217937e+00 -6.4690276595372122e-04 0.0000000000000000e+00  1.1489970545466963e+00 7.1267550085611685e-05 0.0000000000000000e+00  1.1463147368816806e+00 -3.9021401395654860e-02 0.0000000000000000e+00  1.1490346589993479e+00 -4.7305731638842327e-05 0.0000000000000000e+00  2.0476860253660738e+00 -7.4589903002994062e-02 0.0000000000000000e+00  1.1489918195559978e+00 -6.9345206004671174e-05 0.0000000000000000e+00  1.1491355403648795e+00 -1.3202806859021873e-04 0.0000000000000000e+00  1.1455787377756446e+00 5.7354153339135985e-05 0.0000000000000000e+00  1.3064142815653430e+00 -1.6472627914789803e-02 0.0000000000000000e+00  1.3399523764667844e+00 1.0530821131207180e-01 0.0000000000000000e+00  1.5176503921760993e+00 1.5046769719627276e-01 0.0000000000000000e+00  1.1249990072061062e+00 -8.5481813558643742e-07 0.0000000000000000e+00  1.1249902298076335e+00 -5.2576849865846561e-07 0.0000000000000000e+00  1.1491684322589097e+00 -6.0885499964371672e-05 0.0000000000000000e+00  1.6564260970522253e+00 3.3179057308303478e-01 0.0000000000000000e+00  6.5455410584863438e-01 -2.2150022414755170e-02 0.0000000000000000e+00  1.5182825190911307e+00 -3.1778221973968035e-01 0.0000000000000000e+00  1.2181099177916099e+00 8.1698957767334046e-02 0.0000000000000000e+00  1.1337403046396224e+00 -3.1071826808673923e-05 0.0000000000000000e+00  1.1462837390457263e+00 -5.6575376571460041e-06 0.0000000000000000e+00  1.1476436857593821e+00 4.6523201735277573e-05 0.0000000000000000e+00  9.9373374339119436e-01 -1.4949668496836802e-01 0.0000000000000000e+00  1.1321880493385219e+00 -4.0941537122668958e-04 0.0000000000000000e+00  1.1492035526763291e+00 4.2002809618503587e-03 0.0000000000000000e+00  1.1443021757173804e+00 -4.5558833073271276e-05 0.0000000000000000e+00  1.1456518919687524e+00 -2.3901181663849594e-04 0.0000000000000000e+00  1.1461897234946117e+00 -1.1533677385504979e-04 0.0000000000000000e+00  1.1457607769390987e+00 -3.2687427903221926e-04 0.0000000000000000e+00  1.1464076975589990e+00 -1.3715919542397933e-04 0.0000000000000000e+00  1.1461386815738048e+00 1.3960332009622277e-04 0.0000000000000000e+00  1.1421963203273422e+00 -2.9217806367568479e-03 0.0000000000000000e+00  1.1171517291492643e+00 2.1422448072836365e-05 0.0000000000000000e+00  1.1165099642003544e+00 -1.0630782122551944e-04 0.0000000000000000e+00  1.1492567169034524e+00 -1.4928427211744074e-05 0.0000000000000000e+00  1.1888862486702987e+00 2.5897623328076103e-01 0.0000000000000000e+00  1.1482265069874942e+00 1.2599213666362051e-04 0.0000000000000000e+00  -5.1287921445325235e-01 1.4127590767724918e-01 0.0000000000000000e+00  1.2101054852396018e+00 -5.5764212536510628e-02 0.0000000000000000e+00  1.1502974354510074e+00 -1.8594516747599892e-03 0.0000000000000000e+00  1.4073233923211836e+00 2.3564592500524589e-01 0.0000000000000000e+00  1.1490387799262152e+00 -2.3340085842808963e-05 0.0000000000000000e+00  1.8736992737016758e+00 -1.0718985094300218e-01 0.0000000000000000e+00  1.1395068767447882e+00 -2.4685700465340499e-01 0.0000000000000000e+00  -5.1793106712572413e-07 7.4996966161755022e-09 0.0000000000000000e+00  1.0975841238473090e+00 1.4648864903792782e-04 0.0000000000000000e+00  -1.6201795576954281e-06 8.7868371150259233e-09 0.0000000000000000e+00  -6.9613381803908936e-06 -3.9574488488320004e-08 0.0000000000000000e+00  1.1493355346023406e+00 1.7560796755986720e-05 0.0000000000000000e+00  2.3110258135542483e-06 -5.2222060611143338e-07 0.0000000000000000e+00  1.1158361324263901e+00 -8.0531349237803138e-05 0.0000000000000000e+00  -2.2762664810103232e-06 1.4160172241619355e-10 0.0000000000000000e+00  -1.9133252079514971e-06 5.6374172542194526e-09 0.0000000000000000e+00  1.1239080340060621e+00 -2.2281533050202264e-05 0.0000000000000000e+00  -1.7370283646736678e-06 2.0218839590894967e-07 0.0000000000000000e+00  1.7114026520510124e+00 -4.1066621108420320e-01 0.0000000000000000e+00  1.5200823518568438e+00 -2.7986564140078324e-01 0.0000000000000000e+00  1.1446644693045078e+00 -1.1735063028952997e-02 0.0000000000000000e+00  1.3352114447844587e+00 -1.0155100873193630e-01 0.0000000000000000e+00  1.4896579568102715e+00 -3.8096201177269379e-01 0.0000000000000000e+00  1.3738342369465151e+00 1.3024199551000684e-01 0.0000000000000000e+00  1.2598885088101712e+00 3.2057230334490583e-01 0.0000000000000000e+00  1.1490772082680367e+00 2.9025769307179281e-05 0.0000000000000000e+00  1.1161543174757054e+00 -1.5650205744525858e-04 0.0000000000000000e+00  -6.0071480160337951e-07 1.7499585633994993e-09 0.0000000000000000e+00  1.0994194515884814e+00 2.9028609921118637e-02 0.0000000000000000e+00  1.1622492599514049e+00 -1.5798279573780046e-02 0.0000000000000000e+00  1.1493024589567915e+00 8.1611583333049482e-05 0.0000000000000000e+00  1.1489179542525789e+00 -6.9933935253410086e-04 0.0000000000000000e+00  1.1159447588709757e+00 -3.0485107408854235e-04 0.0000000000000000e+00  -2.6085616400695919e-06 8.8527140092407404e-09 0.0000000000000000e+00  1.1490365684807791e+00 -1.0720433434251262e-04 0.0000000000000000e+00  1.1164366317346681e+00 4.0889377914172010e-05 0.0000000000000000e+00  1.6789826607011733e+00 9.2649183861373385e-02 0.0000000000000000e+00  1.1488415106374281e+00 -2.7852709174662379e-04 0.0000000000000000e+00  1.1485272046160555e+00 -3.2781038052055603e-03 0.0000000000000000e+00  -8.0802603984380813e-06 -1.7329985947207831e-06 0.0000000000000000e+00  -1.2774995334835517e-05 -1.6735636593268263e-09 0.0000000000000000e+00  1.3423119625271780e+00 -1.8468570192196807e-02 0.0000000000000000e+00  1.3368979143485218e+00 -3.0518215394085103e-02 0.0000000000000000e+00  1.5644173365659220e+00 -2.2964854587638212e-01 0.0000000000000000e+00  1.1522989633612928e+00 -1.3928944147434596e-03 0.0000000000000000e+00  -3.0200798832375657e-06 -2.7900061292483133e-07 0.0000000000000000e+00  6.5625066733084902e-01 -2.3339197312899683e-07 0.0000000000000000e+00  1.0669228296253621e+00 -3.7254025564645490e-03 0.0000000000000000e+00  1.2911925036650662e+00 -1.5761400042318560e-01 0.0000000000000000e+00  1.4411986356527651e+00 2.6064393994791596e-01 0.0000000000000000e+00  -4.5101514009818962e-06 6.3590161503568476e-09 0.0000000000000000e+00  1.1107078362200689e+00 7.1405656335468923e-05 0.0000000000000000e+00  1.1492865468495139e+00 -1.5541760259711094e-05 0.0000000000000000e+00  -3.3907605470054836e-06 1.2956029931125680e-09 0.0000000000000000e+00  -1.0032423060911026e-05 3.9996021352153567e-09 0.0000000000000000e+00  -3.9313336808759195e-06 -1.7202925039095730e-08 0.0000000000000000e+00  1.7217464255468116e-06 9.1528023354152854e-09 0.0000000000000000e+00  -2.1050158373896961e-06 -2.7425266623171857e-09 0.0000000000000000e+00  -1.0584056365535881e-05 2.1613204332530416e-06 0.0000000000000000e+00  3.2773165167108471e-07 1.6135929068816591e-07 0.0000000000000000e+00  -4.6604538709846185e-06 7.0904407076991091e-08 0.0000000000000000e+00  7.8343086836367637e-06 3.5585174022983743e-08 0.0000000000000000e+00  1.0136309243184851e-06 7.3729892610430728e-07 0.0000000000000000e+00  -4.4090651980618385e-06 -3.7459403984549120e-07 0.0000000000000000e+00  9.6000529698057771e-07 1.5499299174228958e-07 0.0000000000000000e+00  -1.2057736917224301e-07 3.8308776482325164e-09 0.0000000000000000e+00  1.2911433436347058e-05 -7.5737264367106812e-07 0.0000000000000000e+00  9.3350112242669632e-07 1.3985401975668819e-07 0.0000000000000000e+00  -7.8963398885205339e-07 -1.7916275299752812e-08 0.0000000000000000e+00  -7.1478241737594361e-06 -1.0397903742791741e-08 0.0000000000000000e+00  -2.1072277531966600e-06 3.1444638845721036e-09 0.0000000000000000e+00  -6.3590435829386162e-07 4.1498411520693501e-09 0.0000000000000000e+00  1.0678323075361307e+00 7.9813195734133345e-05 0.0000000000000000e+00  1.0686366875114690e+00 -2.5188306538568623e-04 0.0000000000000000e+00  1.0911949161206715e+00 1.5028490717106392e-04 0.0000000000000000e+00  1.1083784953169433e+00 -2.2344342988255309e-04 0.0000000000000000e+00  1.1493426343345152e+00 7.3999667187513591e-05 0.0000000000000000e+00  1.1490491679253207e+00 -1.4195944950560438e-04 0.0000000000000000e+00  1.0416676482372040e+00 -4.9547228709130343e-02 0.0000000000000000e+00  1.0507403512167308e+00 2.3168826252426818e-05 0.0000000000000000e+00  -6.0873133108538546e-01 5.5637304096941835e-02 0.0000000000000000e+00  1.5693511076382927e+00 1.3310963697074024e-01 0.0000000000000000e+00  2.5786073995199943e-01 -8.2451135467174252e-02 0.0000000000000000e+00  1.1492740295302362e+00 -7.0257029721452894e-05 0.0000000000000000e+00  1.1493725877133054e+00 -6.5235710162946103e-05 0.0000000000000000e+00  1.1493589134119822e+00 -6.3877242235416335e-05 0.0000000000000000e+00  1.1493045628939900e+00 -2.4907962270805028e-05 0.0000000000000000e+00  1.0659613420775766e+00 3.1122582863188417e-05 0.0000000000000000e+00  1.0907736284304488e+00 -1.1566086640228091e-04 0.0000000000000000e+00  1.0513520740845519e+00 5.6046999756009436e-05 0.0000000000000000e+00  1.1428674835381687e+00 5.9878893402505057e-05 0.0000000000000000e+00  1.1110759887068715e+00 1.2228056921034203e-01 0.0000000000000000e+00  8.1904329292940725e-01 -1.0425680264419304e-01 0.0000000000000000e+00  6.5120842891743358e-01 9.9323675137603498e-02 0.0000000000000000e+00  1.1492662394104001e+00 5.4432868722315793e-05 0.0000000000000000e+00  1.1489501803137840e+00 -8.1948827731652882e-05 0.0000000000000000e+00  1.1491508689934642e+00 -1.8522096848555214e-05 0.0000000000000000e+00  1.0961351970538247e+00 4.6637356956794900e-05 0.0000000000000000e+00  1.1492831020551904e+00 7.3246759222831030e-05 0.0000000000000000e+00  1.1492754522099038e+00 -3.7595030758707116e-04 0.0000000000000000e+00  1.0791544522793244e+00 6.2064807450029033e-05 0.0000000000000000e+00  1.1491258705520060e+00 4.1811059520623412e-05 0.0000000000000000e+00  1.0708553376676078e+00 9.3351788275228696e-05 0.0000000000000000e+00  1.4838540165490857e+00 1.8329854191874766e-02 0.0000000000000000e+00  6.5624822862349141e-01 -2.5207052162648906e-07 0.0000000000000000e+00  7.2525494628907305e-01 6.1491137861878528e-02 0.0000000000000000e+00  1.4469954445704034e+00 1.6310633513095335e-01 0.0000000000000000e+00  1.6523380523905944e+00 3.2164272137803945e-01 0.0000000000000000e+00  1.0229586677415488e+00 -3.3593908339271321e-05 0.0000000000000000e+00  1.1659194058165534e+00 -3.6170296458355934e-02 0.0000000000000000e+00  1.1490978456078385e+00 -1.3586506732313937e-03 0.0000000000000000e+00  1.1485588781055007e+00 -6.7922983671570174e-05 0.0000000000000000e+00  1.1490399500400712e+00 -1.0819091763961287e-05 0.0000000000000000e+00  1.1489544972327386e+00 -6.1812165505254220e-05 0.0000000000000000e+00  1.2148037327057850e+00 1.6823334522675262e-01 0.0000000000000000e+00  8.6953168771893274e-01 1.2846148680712891e-01 0.0000000000000000e+00  7.1606582062203616e-01 3.4979098342300480e-02 0.0000000000000000e+00  1.1493110447012269e+00 2.1721881548614191e-06 0.0000000000000000e+00  1.1484734310128850e+00 -1.9867392742139030e-05 0.0000000000000000e+00  1.4306275431059923e+00 -3.5306328862869989e-02 0.0000000000000000e+00  1.1491316790070631e+00 -6.8785287899099119e-05 0.0000000000000000e+00  7.8582335919001500e-01 -9.9581398317002939e-02 0.0000000000000000e+00  1.0387259279279837e+00 6.4726972893021777e-05 0.0000000000000000e+00  7.5228741567057700e-01 7.4601579707241975e-02 0.0000000000000000e+00  9.4213421635211547e-01 9.4987227132330945e-02 0.0000000000000000e+00  6.0855129636695160e-01 -8.2528516623011413e-03 0.0000000000000000e+00  1.5484996763838608e+00 2.9933343466288748e-01 0.0000000000000000e+00  1.1491731358599440e+00 9.6512324433210115e-05 0.0000000000000000e+00  1.1676519093969764e+00 4.2845358280741586e-03 0.0000000000000000e+00  1.2240500277583233e+00 1.7627671934774075e-01 0.0000000000000000e+00  1.0707611239165069e+00 -1.1052503626966796e-05 0.0000000000000000e+00  1.1312337041031342e+00 -1.6316846078851289e-04 0.0000000000000000e+00  1.1485279772109112e+00 -5.1887742515565965e-04 0.0000000000000000e+00  1.1490226968147916e+00 -2.1342763782889409e-04 0.0000000000000000e+00  1.4099059441361219e+00 1.5662997192367186e-02 0.0000000000000000e+00  1.1488575799541751e+00 4.4866048693315310e-05 0.0000000000000000e+00  1.1490617161322569e+00 -2.2940568389642302e-05 0.0000000000000000e+00  1.1487366835830308e+00 -5.2033428090023155e-05 0.0000000000000000e+00  1.1468877641506932e+00 -1.8865345621098620e-03 0.0000000000000000e+00  9.4954006525957169e-01 -2.9713498115334900e-04 0.0000000000000000e+00  9.4950985402971200e-01 -2.3594369826822711e-04 0.0000000000000000e+00  1.0018595554587841e+00 -6.6307677690801434e-04 0.0000000000000000e+00  1.0445793424645446e+00 -2.4923011360987267e-04 0.0000000000000000e+00  1.0737184326410605e+00 -3.7394794025314284e-05 0.0000000000000000e+00  1.1484739073176065e+00 -5.1557172803155080e-05 0.0000000000000000e+00  9.8804277681941466e-01 -1.4848795120383539e-04 0.0000000000000000e+00  1.1493944304048080e+00 1.3682644860404083e-05 0.0000000000000000e+00  1.1488738299170704e+00 -2.1322393533894111e-05 0.0000000000000000e+00  1.3424320560122422e+00 -9.3409296626894983e-02 0.0000000000000000e+00  1.1492514490331476e+00 -5.2679951580713954e-05 0.0000000000000000e+00  1.1489907868099725e+00 1.4261281573690506e-05 0.0000000000000000e+00  1.1609938056653433e+00 -1.2396885664465457e-01 0.0000000000000000e+00  8.9741321774845439e-01 -2.8778908522004206e-04 0.0000000000000000e+00  1.1430234857623482e+00 -5.2237910750258822e-04 0.0000000000000000e+00  1.5608683932136485e+00 -5.4513524433395588e-01 0.0000000000000000e+00  1.0282851621002154e+00 2.0359285035132592e-04 0.0000000000000000e+00  7.3790378531340850e-01 -7.8007850205525253e-02 0.0000000000000000e+00  1.4831880883722888e+00 -4.0017507901546748e-02 0.0000000000000000e+00  1.0172178805669674e+00 4.1793420646014049e-03 0.0000000000000000e+00  9.4199853403179878e-01 1.3773443847431090e-04 0.0000000000000000e+00  1.5363934256345328e+00 4.7956517784665209e-01 0.0000000000000000e+00  1.0098246878450328e+00 1.8323494899846035e-01 0.0000000000000000e+00  1.0026291141022077e+00 1.2556494570834355e-04 0.0000000000000000e+00  1.9170719563306156e+00 2.6412669628933361e-01 0.0000000000000000e+00  1.4549162354958765e+00 -5.0883422637921272e-01 0.0000000000000000e+00  9.7525658029355777e-01 -1.9080133205056374e-01 0.0000000000000000e+00  9.8299658729447670e-01 -9.4580168728347330e-03 0.0000000000000000e+00  7.4656780208618023e-01 -5.2337369622426945e-02 0.0000000000000000e+00  9.8236367108542000e-01 4.0668542344794289e-05 0.0000000000000000e+00  1.0213780744469632e+00 5.7319951404896588e-05 0.0000000000000000e+00  1.1482619660789803e+00 -3.3573255119463002e-04 0.0000000000000000e+00  2.3281476300453605e-01 -2.1045217836405741e-01 0.0000000000000000e+00  1.4062434287118426e+00 -1.9310359090700551e-06 0.0000000000000000e+00  1.1492669932581556e+00 5.5288483484493018e-05 0.0000000000000000e+00  1.0034846681146716e+00 -6.7214443038424339e-04 0.0000000000000000e+00  1.4062432090502546e+00 -1.6812669125103921e-06 0.0000000000000000e+00  1.0033427551696505e+00 -1.4661471140678272e-05 0.0000000000000000e+00  1.1470866221926588e+00 -5.9394292343677452e-03 0.0000000000000000e+00  1.1566980449930233e+00 6.5936158553519392e-02 0.0000000000000000e+00  1.1487678907998142e+00 -3.8621987161724815e-05 0.0000000000000000e+00  7.1633359556498988e-01 1.0016363640313031e-01 0.0000000000000000e+00  1.1491856363084363e+00 -1.1573303011216910e-05 0.0000000000000000e+00  9.8347182130619260e-01 -2.5437892944333955e-04 0.0000000000000000e+00  9.1483788687037770e-01 3.7554075536407140e-02 0.0000000000000000e+00  8.4410637529440014e-01 8.3385344143176632e-05 0.0000000000000000e+00  1.1476009751975578e+00 -1.2208965813967602e-05 0.0000000000000000e+00  8.4454964378036967e-01 -2.4190375196874751e-06 0.0000000000000000e+00  9.48098951145