<?xml version="1.0"?>
<VTKFile type="UnstructuredGrid"  version="0.1"  >
<UnstructuredGrid>
<Piece  NumberOfPoints="2446" NumberOfCells="4585">
<Points>
<DataArray  type="Float64"  NumberOfComponents="3"  format="ascii">0 0.41 0  0 0 0  2.2 0 0  2.2 0.41 0  0.2404508497187474 0.2293892626146237 0  0.25 0.2 0  0.2404508497187474 0.1706107373853764 0  0.2154508497187474 0.1524471741852423 0  0.1845491502812526 0.1524471741852423 0  0.1595491502812526 0.1706107373853764 0  0.15 0.2 0  0.1595491502812526 0.2293892626146237 0  0.1845491502812527 0.2475528258147577 0  0.2154508497187474 0.2475528258147577 0  1.1 0 0  1.1 0.41 0  0 0.205 0  0.55 0 0  0.55 0.41 0  0.275 0 0  0.275 0.41 0  1.65 0.41 0  1.65 0 0  0.8250000000000001 0.41 0  0.8250000000000001 0 0  1.375 0 0  1.375 0.41 0  1.925 0 0  1.925 0.41 0  1.5125 0.205 0  1.7875 0.205 0  0.6875 0.205 0  0.9625000000000001 0.205 0  1.2375 0.205 0  2.2 0.205 0  0.4687002074688797 0.2068568464730291 0  1.99375 0.2152743902439024 0  2.0625 0 0  2.0625 0.41 0  2.2 0.3075 0  0.4125 0 0  0.4125 0.41 0  1.7875 0.41 0  1.375 0.1486128048780488 0  1.5125 0 0  1.7875 0 0  1.5125 0.41 0  0.8250000000000001 0.2613871951219511 0  0.9625000000000001 0.41 0  0.9625000000000001 0 0  0.6875 0.41 0  0.6875 0 0  0.1375 0 0  0.1375 0.41 0  1.2375 0 0  1.1 0.1486128048780487 0  1.2375 0.41 0  1.65 0.1486128048780487 0  1.126715909090909 0.2793064024390244 0  1.676715909090909 0.2793064024390244 0  0.8517159090909092 0.1306935975609756 0  1.348284090909091 0.2793064024390244 0  0.34375 0.3032389320646208 0  1.894702181800738 0.1282910975492754 0  2.092797818199262 0.1282910975492754 0  1.85625 0.3075 0  0.61875 0.3075 0  0.61875 0.1025 0  0.3648540804333487 0.1240075933101478 0  0 0.3075 0  0 0.1025 0  2.099172119769978 0.25625 0  0.48125 0.09238439620688085 0  0.5781001037344399 0.2059284232365146 0  0.48125 0.3196743479159776 0  0.7265881057911006 0.3055240343720796 0  1.99375 0.08395950269330846 0  1.459960956013612 0.3075 0  1.569025960719943 0.2986889805672169 0  0.75625 0.08213100772579164 0  1.03125 0.3278689922742084 0  0.923871252904788 0.3078247185783941 0  1.959375 0.3126371951219512 0  1.749222215368287 0.1025 0  1.275777784631713 0.1025 0  2.2 0.1025 0  1.225938124459196 0.3075 0  1.550777784631713 0.1025 0  1.000777784631713 0.1025 0  1.44375 0.07430640243902442 0  1.16875 0.07430640243902437 0  1.899250267340833 0.2229966846119207 0  0.1020898364287272 0.3140258291809757 0  1.766482954545455 0.2934032012195123 0  0.3405058858996321 0.2119987970531874 0  0.7710785630958338 0.1710968191298857 0  1.046078563095834 0.2389031808701144 0  0.2 0.3400647632937836 0  1.421109702350723 0.2261157654379721 0  0.2800464974185557 0.08982544815605742 0  0.098916018031319 0.09171660955420841 0  2.13125 0 0  2.118919042110979 0.3422084711244843 0  1.30625 0.41 0  0.89375 0 0  1.597888256393107 0.2173787389261347 0  0.20625 0 0  1.829299675393195 0.07400700849299596 0  1.71875 0.41 0  1.16875 0.41 0  2.038220665644273 0.332420740103091 0  0.34375 0 0  0.417496017710808 0.2696595573092803 0  0.2 0.07687845740457822 0  0.9295982307099278 0.1343158415898188 0  0.07390688010811153 0.1697064032433452 0  0.5238366813727013 0.2578302467013575 0  0.05452951551825875 0.25625 0  0.5229630068078351 0.1548816096928243 0  1.452769549894695 0.1548122580621249 0  1.369219062229598 0.07430640243902442 0  1.30625 0 0  0.8504409521244898 0.3356935975609756 0  0.8821881244591965 0.205 0  1.720943423819132 0.1714577452753128 0  1.157188124459196 0.205 0  1.094219062229598 0.07430640243902437 0  1.03125 0 0  1.304056576180868 0.1714577452753128 0  1.67579304192913 0.07430640243902437 0  0.2751941921308361 0.3346083473122598 0  1.209670467133757 0.1362100266964769 0  1.025335513626278 0.1700681449722324 0  0.7562500000000001 0.41 0  1.58125 0 0  0.7567170593862014 0.2409196493502535 0  0.6926714215682891 0.1272249611432207 0  0.4139715849905988 0.3397932387114203 0  0.9840787304190477 0.2717749043358119 0  0.06875000000000001 0.41 0  0 0.35875 0  0.9281250000000001 0.06276726142697993 0  0.5507396469029935 0.3219409231578227 0  0.5504468037989405 0.09136885600634273 0  1.58125 0.41 0  1.631724228912893 0.3381867502687533 0  1.825608881788174 0.14499488549201 0  1.85625 0 0  1.44375 0 0  1.44375 0.41 0  1.85625 0.41 0  2.13125 0.41 0  0.7562500000000001 0 0  0.89375 0.41 0  0.4812500000000001 0 0  0.34375 0.41 0  0.4812500000000001 0.41 0  0.20625 0.41 0  0.06875000000000001 0 0  1.16875 0 0  0.61875 0 0  0.61875 0.41 0  1.03125 0.41 0  1.71875 0 0  1.99375 0 0  1.99375 0.41 0  1.340625 0.3489494290853124 0  1.134375 0.3489494290853123 0  1.700180620188976 0.3438659752031281 0  2.135782184673599 0.07126652247502523 0  1.668441847249787 0.2129203728327609 0  1.295782514339747 0.2378437748815763 0  0.8233075729931248 0.06842334294821524 0  1.409375 0.3520314716057996 0  0.403505597322782 0.182067236678212 0  0.378125 0.05794951541303489 0  0.3043468223249023 0.1518321115979534 0  2.129248544730567 0.1906135162504124 0  2.060771381434487 0.1989445750470348 0  2.013252586573865 0.1496169464686054 0  1.942766402200229 0.1734448904596831 0  1.895522487186454 0.06076163953489683 0  2.069553871656643 0.06605731020975725 0  1.274680914880868 0.3520219391081363 0  1.614713220494657 0.09473434380863296 0  0.7899021319497519 0.3149123934144827 0  0.69518737419149 0.0634051089053758 0  0.2971740475496061 0.2592172353407536 0  1.72990325744076 0.2380068107952482 0  1.356580098625191 0.2120393231351682 0  2.034370752044885 0.2668681600792073 0  1.51768709249349 0.3426260931494756 0  1.561883724969884 0.1650446847858835 0  1.197344062229598 0.2523725417393646 0  1.804085235518364 0.3468178408964637 0  1.817887819205233 0.2589243285818559 0  1.905897727272727 0.3485060975609756 0  0.6719798073392919 0.2688965171178177 0  0 0.05125 0  0.653125 0.35875 0  0.6396896119294488 0.1627615407790282 0  0.4274150154087412 0.1242548552168279 0  1.192836486056382 0.3562350748565544 0  0.8279124365364005 0.183856489168822 0  1.097485222388854 0.2083571153401724 0  1.28257088594801 0.2944411014911587 0  1.474860187679412 0.2504218616229368 0  1.406767003493824 0.2829282258560709 0  0.446875 0.04619219810344041 0  0.515625 0.04585361801037557 0  0.592043440706648 0.05125 0  1.845656689180403 0.1998310418452388 0  2.144958525570388 0.2909790873294231 0  0.6171090763650112 0.2492366900333857 0  2.2 0.15375 0  0.5145586920831158 0.3648371739579888 0  1.57794966442982 0.3540357145964566 0  0.721875 0.3633107922168974 0  0.0496154796471391 0.333125 0  0.5843750000000001 0.3662560860076676 0  0.5810878747760798 0.1474002776121195 0  1.508991196088596 0.1421783375065625 0  0.8840670607017558 0.2640994375393898 0  0.09776612425612034 0.2204896805326566 0  1.50436820029908 0.06143401634903343 0  1.223857000523521 0.0823554862453532 0  1.153316824384777 0.1289850171317837 0  2.148922302309752 0.1258841779285271 0  0.309375 0.04312325590431198 0  1.621993280276081 0.2841214267927899 0  1.550118654119087 0.2461998729100966 0  1.327182649291491 0.1216967252533594 0  1.051977450479407 0.1221382572915816 0  1.753125 0.04556020050186112 0  1.271875 0.04556020050186116 0  0.9816084133102366 0.05126138213476004 0  1.039051841454368 0.0572224914831029 0  0.9719230514536006 0.3480477870845102 0  1.94956388244759 0.1180512551534177 0  1.949997712993411 0.04965831614304109 0  1.771961817615021 0.1530278789497521 0  1.909246823951428 0.2812757146784527 0  0.2459536687882397 0.04668633953831142 0  1.948575539857022 0.2445328248721197 0  1.697271520964565 0.1233917627620729 0  0.7964897648514618 0.1211426571931604 0  1.065625 0.3689344961371042 0  1.085849084308977 0.3170853572226867 0  0.4702981435440001 0.260434880697798 0  1.577403511714593 0.05463601888079143 0  0.05622663515370135 0.05493816910862376 0  0.3267207591099919 0.3566194660323104 0  0.9003051618565143 0.3564049499960621 0  1.751571320346033 0.3651102912045228 0  0.1583785085108421 0.2994699345738728 0  0.1455283439499995 0.3542795598723423 0  2.2 0.35875 0  0.2347662494194072 0.298325008655211 0  0.1527284455616188 0.1065771775690181 0  0.1382139529076665 0.05427454456341477 0  0.8749341636311069 0.05110114999892954 0  0.643661668713109 0.05693499781019222 0  1.466879772203159 0.3611261772912453 0  1.990280163552011 0.3564754268533217 0  1.17471064520912 0.2990917256188288 0  0.5202693090594349 0.206382495511728 0  0 0.25625 0  2.2 0.25625 0  2.2 0.05125 0  0 0.15375 0  1.853978576207987 0.35875 0  0.9787513713939683 0.1487523696999336 0  0.240625 0.3722153812029779 0  1.515638456102889 0.2882700110184686 0  0.09048297387599738 0.3637717362208066 0  2.150453692751374 0.2387066338105111 0  1.323782677156475 0.04897634338873398 0  0.8074131292871642 0.3624701995505916 0  1.409375 0.03715320121951221 0  1.406484531114799 0.1087852750766809 0  1.134375 0.03715320121951218 0  1.627401732573545 0.04552157221025036 0  0.1170173172005315 0.1427610859166811 0  2.045405893604797 0.1105340662939892 0  1.255408269734577 0.1577307500159216 0  2.028125 0.03707597992059326 0  0.4743610090857199 0.1421513964721819 0  0.9354010469015898 0.250631300585664 0  0.04420832937638274 0.128125 0  0.8922386349349938 0.0992956419364831 0  0.1197849154434487 0.2663398672460083 0  1.248258025468107 0.2565907092181813 0  0.3746885856929528 0.370723531618974 0  1.203125 0.0366132337404304 0  0.5724622277005015 0.2751253816079333 0  0.3365425205162783 0.08395777655057959 0  2.072662025974815 0.2975086504196739 0  0.4581080832182547 0.3648371739579888 0  0.3874522734668214 0.2295447548840689 0  0.7827853612484443 0.04106550386289586 0  1.887722846421017 0.1760882698830035 0  1.472640588990488 0.1118278026240017 0  1.865937103925594 0.2604137786483804 0  1.463913572748262 0.2030442564990043 0  1.376426316059077 0.3186741374914345 0  0.6641993820150034 0.3141688596240831 0  0.2943117490824315 0.2130987422685822 0  0.3478153998082709 0.1666571081082676 0  0.3427990510599805 0.2575950027870776 0  0.7997118993855807 0.2216171933356366 0  
[...]
<PointData  Vectors="f_31"> 
<DataArray  type="Float64"  Name="f_31"  NumberOfComponents="3" format="ascii">2.2664837832223127e-06 5.5521751739314453e-08 0.0000000000000000e+00  -2.3150270004094866e-06 1.0016119946905566e-08 0.0000000000000000e+00  3.6740490520058949e-06 -2.6683127914260214e-09 0.0000000000000000e+00  -1.6022261803173938e-05 -1.1654941389588680e-08 0.0000000000000000e+00  -3.3961241304210021e-06 -5.0283584786915130e-07 0.0000000000000000e+00  8.4270840578582433e-07 -1.1977327295457852e-05 0.0000000000000000e+00  3.6032992222116776e-06 -4.0222619372016107e-06 0.0000000000000000e+00  -8.6634507294584985e-06 3.5764995179888697e-06 0.0000000000000000e+00  -3.8804474921297469e-06 5.5419383702529608e-06 0.0000000000000000e+00  9.8518640459091666e-06 -5.4499630127817568e-07 0.0000000000000000e+00  -2.6221902257912445e-07 -3.6330746626262578e-06 0.0000000000000000e+00  -1.5664377371714557e-05 -2.0391611346681444e-06 0.0000000000000000e+00  7.5509044654417654e-06 8.7036563680416523e-06 0.0000000000000000e+00  -1.0205555483380676e-05 -8.6566894010693327e-07 0.0000000000000000e+00  -2.3252011580522572e-06 1.0796884048303846e-08 0.0000000000000000e+00  2.0159380427234129e-07 -1.4452523264809937e-08 0.0000000000000000e+00  1.5000043946829951e+00 -1.8003324383107077e-06 0.0000000000000000e+00  -5.5748758188023095e-06 -2.7962201811256114e-06 0.0000000000000000e+00  9.5804210089758486e-06 5.5469856187564776e-07 0.0000000000000000e+00  4.6229756941569490e-06 3.1166011587892815e-07 0.0000000000000000e+00  -4.6112159115486366e-06 5.1181987089076970e-08 0.0000000000000000e+00  4.8281452546239774e-07 3.1094913901285070e-09 0.0000000000000000e+00  5.4208443786257478e-07 -7.2051039051356955e-09 0.0000000000000000e+00  -6.1983979860180332e-06 -5.3023856077615178e-07 0.0000000000000000e+00  -1.2237805405198729e-05 8.5251932061562914e-07 0.0000000000000000e+00  -3.6300603067065728e-06 2.1785052144105917e-09 0.0000000000000000e+00  -6.1757104904660559e-07 7.4310652161311194e-09 0.0000000000000000e+00  -2.7081946360095344e-06 8.1934977780396394e-09 0.0000000000000000e+00  -1.9705993423545644e-06 -1.4366934734023257e-09 0.0000000000000000e+00  1.1525800059476461e+00 2.3794861232113636e-05 0.0000000000000000e+00  1.1527174091940871e+00 3.6788589268418255e-05 0.0000000000000000e+00  1.0993232910205846e+00 9.3540566445165799e-02 0.0000000000000000e+00  1.1563305860657145e+00 -8.2570950121583480e-03 0.0000000000000000e+00  1.1522500616217810e+00 -4.0012082068495523e-04 0.0000000000000000e+00  1.1526417493805428e+00 -6.1656438836221031e-05 0.0000000000000000e+00  -1.5838249900151299e-01 -2.2113683153741726e-01 0.0000000000000000e+00  1.1526381493724853e+00 -4.3920256636495475e-05 0.0000000000000000e+00  3.9652321521360770e-07 2.9212189469704986e-09 0.0000000000000000e+00  -7.7934862459713736e-07 1.4787891577126082e-09 0.0000000000000000e+00  1.1485238387985530e+00 3.0253903824085649e-05 0.0000000000000000e+00  -2.5069876839856704e-06 6.3969782956559572e-07 0.0000000000000000e+00  2.8266525558055371e-06 -2.7666247443494069e-07 0.0000000000000000e+00  -5.6293994754758340e-06 -7.3334941229319419e-09 0.0000000000000000e+00  1.1524537016774765e+00 -8.1683805424517036e-06 0.0000000000000000e+00  4.7015690671304623e-07 -5.5018439196782662e-09 0.0000000000000000e+00  -3.9219265869115093e-06 1.5047579277810801e-08 0.0000000000000000e+00  1.1794659378292909e-06 -3.2377006677700451e-09 0.0000000000000000e+00  1.2740607820350167e+00 4.2895932409874035e-02 0.0000000000000000e+00  -1.4255096328258456e-06 5.3002900029491261e-08 0.0000000000000000e+00  2.6216472336463430e-06 1.7679473332306620e-09 0.0000000000000000e+00  -5.8339696613660566e-07 2.0064679107738011e-07 0.0000000000000000e+00  3.5443667767414741e-06 2.9932296426885939e-07 0.0000000000000000e+00  -3.9503547105512903e-06 6.5561459692793574e-07 0.0000000000000000e+00  -5.4867535765028376e-06 -5.1838187196885150e-07 0.0000000000000000e+00  3.9417718145097187e-07 3.7061247620286598e-10 0.0000000000000000e+00  1.1514001096658553e+00 -1.6562226100865160e-03 0.0000000000000000e+00  -1.4041114514786905e-06 -4.2806287854259862e-09 0.0000000000000000e+00  1.1527439207658368e+00 6.2184350055118382e-05 0.0000000000000000e+00  1.1530527206359256e+00 -8.6921890069961499e-04 0.0000000000000000e+00  1.1522885303197545e+00 7.1214842605680378e-05 0.0000000000000000e+00  1.1552462729486188e+00 -6.1844871843079241e-02 0.0000000000000000e+00  1.1523463382472796e+00 -6.6060322473697242e-05 0.0000000000000000e+00  2.0472389453925697e+00 -5.3549635367660768e-02 0.0000000000000000e+00  1.1522710881999527e+00 -7.3857699404375528e-05 0.0000000000000000e+00  1.1524079293508724e+00 -1.2830367995649917e-04 0.0000000000000000e+00  1.1482986469919034e+00 9.2642056039212982e-05 0.0000000000000000e+00  1.3070410894397890e+00 -3.0377533440391964e-02 0.0000000000000000e+00  1.3901597674103219e+00 1.3898868140062046e-01 0.0000000000000000e+00  1.5289866759706510e+00 1.6176085495737733e-01 0.0000000000000000e+00  1.1249990317935201e+00 -6.7195107471232237e-07 0.0000000000000000e+00  1.1249902276402088e+00 -2.8758407645781988e-07 0.0000000000000000e+00  1.1525144633513147e+00 -6.1218669540673510e-05 0.0000000000000000e+00  1.6581228444027005e+00 3.1226378951173422e-01 0.0000000000000000e+00  6.2456758470542406e-01 -9.7821277709268031e-02 0.0000000000000000e+00  1.5485793446274003e+00 -3.3525213081260841e-01 0.0000000000000000e+00  1.2440552099418392e+00 7.5185561629755995e-02 0.0000000000000000e+00  1.1348944584241381e+00 -1.6078789136142416e-05 0.0000000000000000e+00  1.1490213878189413e+00 -2.8806541780584768e-06 0.0000000000000000e+00  1.1506593295224334e+00 2.6900667586930818e-05 0.0000000000000000e+00  9.8017475844471647e-01 -1.3480482927188309e-01 0.0000000000000000e+00  1.1334767211022485e+00 -6.2842573060416251e-04 0.0000000000000000e+00  1.1527311594361602e+00 8.4424204125488189e-03 0.0000000000000000e+00  1.1467206416307392e+00 -5.4312290284205254e-05 0.0000000000000000e+00  1.1484089697961533e+00 -2.1243975871122777e-04 0.0000000000000000e+00  1.1488520812348673e+00 -1.4432276034392755e-04 0.0000000000000000e+00  1.1484945567736444e+00 -3.1694372257617877e-04 0.0000000000000000e+00  1.1492029953812370e+00 -1.9028067890831775e-04 0.0000000000000000e+00  1.1488546918834355e+00 1.2201151406675522e-04 0.0000000000000000e+00  1.1432748569833713e+00 -3.9810343245691637e-03 0.0000000000000000e+00  1.1167616392569881e+00 -2.3412559494912110e-05 0.0000000000000000e+00  1.1160176903702494e+00 -1.4646394945101287e-04 0.0000000000000000e+00  1.1525905009394084e+00 -1.1717004477853399e-05 0.0000000000000000e+00  1.1878450450525664e+00 2.5766388969402704e-01 0.0000000000000000e+00  1.1514081900156190e+00 1.2851702800541163e-04 0.0000000000000000e+00  -5.2084692430686186e-01 1.5313686275093474e-01 0.0000000000000000e+00  1.2436569228064052e+00 -3.0927535152365907e-02 0.0000000000000000e+00  1.1540456041111236e+00 -2.5022538559951800e-03 0.0000000000000000e+00  1.4052158217984605e+00 2.3634291175306488e-01 0.0000000000000000e+00  1.1523818549241609e+00 -3.3711855019840048e-05 0.0000000000000000e+00  1.8778148266007788e+00 -1.0577186686844789e-01 0.0000000000000000e+00  1.1405650054556284e+00 -2.4848493450789083e-01 0.0000000000000000e+00  -5.0506027159221243e-07 6.1227966828990750e-09 0.0000000000000000e+00  1.0959332736218228e+00 1.2976089470871825e-04 0.0000000000000000e+00  -1.5829947078914195e-06 7.5658054278383753e-09 0.0000000000000000e+00  -7.9845281692916110e-06 -1.3608377615943889e-07 0.0000000000000000e+00  1.1526681319813066e+00 9.8065377615020044e-06 0.0000000000000000e+00  2.2879953078589990e-06 -5.4137684034295969e-07 0.0000000000000000e+00  1.1153790845473359e+00 -1.2365665364936075e-04 0.0000000000000000e+00  -2.1907018826428208e-06 5.8594956529111428e-10 0.0000000000000000e+00  -1.8831368488256509e-06 6.3677988343148250e-09 0.0000000000000000e+00  1.1240898673503745e+00 -3.2956980155987556e-05 0.0000000000000000e+00  -3.6479055624633955e-07 2.7851909215233969e-07 0.0000000000000000e+00  1.6881193867378443e+00 -3.6825214323600647e-01 0.0000000000000000e+00  1.5230962443454472e+00 -2.8059242010881402e-01 0.0000000000000000e+00  1.1463361235903262e+00 -1.7103240320361531e-02 0.0000000000000000e+00  1.3354887430486002e+00 -1.0394565601516023e-01 0.0000000000000000e+00  1.5174808610074262e+00 -4.3554082817314754e-01 0.0000000000000000e+00  1.3735380222094551e+00 1.2869413762776993e-01 0.0000000000000000e+00  1.1748617953599778e+00 2.6412124760126882e-01 0.0000000000000000e+00  1.1524185003746021e+00 2.4341689656579684e-05 0.0000000000000000e+00  1.1158181696052352e+00 -1.4732033753774650e-04 0.0000000000000000e+00  -5.8674611563353440e-07 1.7244668220763406e-11 0.0000000000000000e+00  1.0818581124083935e+00 5.0392524720899418e-02 0.0000000000000000e+00  1.1699455988383638e+00 -2.2937637884101466e-02 0.0000000000000000e+00  1.1526488729803008e+00 8.5003450870769904e-05 0.0000000000000000e+00  1.1522495497738410e+00 -9.4593694959383182e-04 0.0000000000000000e+00  1.1152057774344171e+00 -3.7358644225393754e-04 0.0000000000000000e+00  -2.4775557926105231e-06 9.7564292366553534e-09 0.0000000000000000e+00  1.1523597051465526e+00 -1.4991619501935214e-04 0.0000000000000000e+00  1.1160505943494847e+00 4.1475258074146443e-05 0.0000000000000000e+00  1.6776730989713073e+00 9.7901696488061171e-02 0.0000000000000000e+00  1.1520558323154637e+00 -3.7425063903222890e-04 0.0000000000000000e+00  1.1516262801636512e+00 -4.4675977165205341e-03 0.0000000000000000e+00  -5.9569003984547394e-06 -8.4865416871756385e-07 0.0000000000000000e+00  -1.2652837105237675e-05 -1.2322636621837477e-09 0.0000000000000000e+00  1.3686881193007416e+00 -6.3016529897187215e-03 0.0000000000000000e+00  1.3841490558730924e+00 9.7969217934358570e-03 0.0000000000000000e+00  1.5887167277954579e+00 -2.2375344081572962e-01 0.0000000000000000e+00  1.1568798931989857e+00 -1.5975988940338489e-03 0.0000000000000000e+00  -2.9014414550713693e-06 -2.5105121681928466e-07 0.0000000000000000e+00  6.5625066359979889e-01 -1.4379160672998776e-07 0.0000000000000000e+00  1.0602508088053990e+00 -5.7498452579692293e-03 0.0000000000000000e+00  1.3016655364774843e+00 -1.8569698885873021e-01 0.0000000000000000e+00  1.4697055111954471e+00 2.6238326656913391e-01 0.0000000000000000e+00  -4.4424240893984888e-06 3.6047002287679481e-09 0.0000000000000000e+00  1.1098231290537444e+00 5.6536715926866261e-05 0.0000000000000000e+00  1.1526350106096923e+00 -1.7912666029244025e-05 0.0000000000000000e+00  -3.3698914715282951e-06 2.9603135754713697e-09 0.0000000000000000e+00  -9.9516570547519427e-06 3.7536651344673398e-09 0.0000000000000000e+00  -3.8577845868046173e-06 -1.8101260073712673e-08 0.0000000000000000e+00  1.7311964818197474e-06 7.3080151630276536e-09 0.0000000000000000e+00  -2.0456963158770467e-06 2.6825776714588666e-10 0.0000000000000000e+00  -6.8083069352025670e-06 2.1249632775782970e-06 0.0000000000000000e+00  -8.2576171287482221e-07 2.6737984559831254e-07 0.0000000000000000e+00  -5.5155065527857425e-06 3.2767358923567640e-07 0.0000000000000000e+00  6.8477038475764040e-06 1.9275010781805875e-07 0.0000000000000000e+00  4.6944328627279946e-07 9.0853467572492422e-07 0.0000000000000000e+00  -4.4883737575761769e-06 -4.2510214932397531e-07 0.0000000000000000e+00  8.2319086636171919e-07 1.8230983002135647e-07 0.0000000000000000e+00  -9.1254399695811039e-08 4.4668263224119049e-09 0.0000000000000000e+00  1.3380334571164956e-05 -1.7350361475661285e-06 0.0000000000000000e+00  3.2818983173867633e-06 2.2605848260100519e-07 0.0000000000000000e+00  -7.1090831121768706e-07 -1.7514275764804976e-08 0.0000000000000000e+00  -7.0740653197913988e-06 -1.1637229997889987e-08 0.0000000000000000e+00  -2.0817959411754545e-06 5.0454948659501453e-09 0.0000000000000000e+00  -6.2268403727222749e-07 3.0902082994758662e-09 0.0000000000000000e+00  1.0646808517171378e+00 5.4478916490297346e-05 0.0000000000000000e+00  1.0655523720532059e+00 -3.1553915040254907e-04 0.0000000000000000e+00  1.0892162561264753e+00 8.7597026092952758e-05 0.0000000000000000e+00  1.1074340963922196e+00 -2.0948666514496948e-04 0.0000000000000000e+00  1.1526803783320809e+00 7.2194369901456518e-05 0.0000000000000000e+00  1.1524073946748141e+00 -1.9297410532135575e-04 0.0000000000000000e+00  1.0070381438503422e+00 -7.9630776297569414e-02 0.0000000000000000e+00  1.0467998400653808e+00 1.8637458829193509e-05 0.0000000000000000e+00  -5.9967498002789266e-01 1.0835338149119557e-01 0.0000000000000000e+00  1.5673181235681315e+00 1.3253811692138290e-01 0.0000000000000000e+00  2.6579117932847712e-01 -8.4117892997943089e-02 0.0000000000000000e+00  1.1526341583575097e+00 -7.2693131795871841e-05 0.0000000000000000e+00  1.1527323554869877e+00 -6.1474009508216684e-05 0.0000000000000000e+00  1.1526977499954938e+00 -5.6020096922918878e-05 0.0000000000000000e+00  1.1526458892535445e+00 -2.0054573951082599e-05 0.0000000000000000e+00  1.0626858115271709e+00 4.0591039190838507e-05 0.0000000000000000e+00  1.0886887245699550e+00 -1.1395034129381601e-04 0.0000000000000000e+00  1.0473618132016431e+00 6.8015772427926815e-05 0.0000000000000000e+00  1.1451035298825325e+00 5.9358634448038780e-05 0.0000000000000000e+00  1.1188810304575634e+00 1.1182109946811751e-01 0.0000000000000000e+00  8.0295517306296438e-01 -8.9190428477637265e-02 0.0000000000000000e+00  6.2555939628310742e-01 9.3904201172458110e-02 0.0000000000000000e+00  1.1526046237353897e+00 5.1495537321379868e-05 0.0000000000000000e+00  1.1522858817636210e+00 -1.0800080317802922e-04 0.0000000000000000e+00  1.1524696706116158e+00 -2.6113024689557343e-05 0.0000000000000000e+00  1.0943631261986317e+00 7.0120914161341324e-05 0.0000000000000000e+00  1.1526120852993027e+00 6.5539352112794878e-05 0.0000000000000000e+00  1.1526799154164966e+00 -5.2075785406926068e-04 0.0000000000000000e+00  1.0764031857765632e+00 8.2669233574787906e-05 0.0000000000000000e+00  1.1524746075095835e+00 5.2035763334087812e-05 0.0000000000000000e+00  1.0677339153684244e+00 1.0414087529706248e-04 0.0000000000000000e+00  1.4893716179131840e+00 3.3154340055918344e-02 0.0000000000000000e+00  6.5624822517053882e-01 -1.6810639631465478e-07 0.0000000000000000e+00  6.9773827568687052e-01 5.4385519036540951e-02 0.0000000000000000e+00  1.4808372868455859e+00 1.9084141864164969e-01 0.0000000000000000e+00  1.6325786487118523e+00 3.1811876512743287e-01 0.0000000000000000e+00  1.0180687064538736e+00 -9.2925536078985126e-05 0.0000000000000000e+00  1.1731825361018453e+00 -4.8835822350187220e-02 0.0000000000000000e+00  1.1524828422627484e+00 -1.8328011340460022e-03 0.0000000000000000e+00  1.1517580632945401e+00 -1.1357049861786348e-04 0.0000000000000000e+00  1.1523796715175492e+00 -5.3324901737013136e-06 0.0000000000000000e+00  1.1522371108855500e+00 -6.5966375159953692e-05 0.0000000000000000e+00  1.2212288848198254e+00 1.6249328507345531e-01 0.0000000000000000e+00  8.9208165737424594e-01 1.2716422068458391e-01 0.0000000000000000e+00  7.2229933166476157e-01 5.6825284980949867e-02 0.0000000000000000e+00  1.1526525173831856e+00 4.9805451964893102e-07 0.0000000000000000e+00  1.1516403716033357e+00 -2.3314884496487927e-05 0.0000000000000000e+00  1.4286150973861353e+00 -5.1806338142522071e-02 0.0000000000000000e+00  1.1524907462325720e+00 -7.5161774191781058e-05 0.0000000000000000e+00  7.9422241271632132e-01 -1.1063124424739862e-01 0.0000000000000000e+00  1.0342595652808906e+00 5.6759172747476598e-05 0.0000000000000000e+00  7.0954946123383345e-01 7.3062676952604516e-02 0.0000000000000000e+00  9.4190812386471323e-01 9.4382772234702275e-02 0.0000000000000000e+00  5.8852681728268341e-01 -2.1629164583921848e-02 0.0000000000000000e+00  1.5583294595270376e+00 2.8823354613261004e-01 0.0000000000000000e+00  1.1524904752246612e+00 8.6303893026594313e-05 0.0000000000000000e+00  1.1837704554538584e+00 1.1104506211380767e-02 0.0000000000000000e+00  1.2235727306307667e+00 1.7287855683411310e-01 0.0000000000000000e+00  1.0676105120315948e+00 -1.1507817443226407e-05 0.0000000000000000e+00  1.1320941329719307e+00 -1.8095053473999117e-04 0.0000000000000000e+00  1.1516018813044102e+00 -6.8713121447901474e-04 0.0000000000000000e+00  1.1522827402548961e+00 -2.1181396661608970e-04 0.0000000000000000e+00  1.4118277926837497e+00 1.6738630880095352e-02 0.0000000000000000e+00  1.1521148360422757e+00 3.3189960989210825e-05 0.0000000000000000e+00  1.1523900000075811e+00 -2.3065664234286016e-05 0.0000000000000000e+00  1.1519388645315125e+00 -6.4359100629286315e-05 0.0000000000000000e+00  1.1493688031279106e+00 -2.4877735370938971e-03 0.0000000000000000e+00  9.4276521146247871e-01 -2.7577828760092193e-04 0.0000000000000000e+00  9.4278528747178725e-01 -1.9106935578586557e-04 0.0000000000000000e+00  9.9549324915403714e-01 -7.5273136872261134e-04 0.0000000000000000e+00  1.0400755145478211e+00 -2.0100730212355207e-04 0.0000000000000000e+00  1.0707146845443776e+00 9.1897865729866557e-05 0.0000000000000000e+00  1.1516313633542061e+00 -5.2031999930022670e-05 0.0000000000000000e+00  9.8224673690868136e-01 -1.1383464379513844e-04 0.0000000000000000e+00  1.1527435287290353e+00 2.3675778907956779e-05 0.0000000000000000e+00  1.1521441441694473e+00 -1.6049090375283857e-05 0.0000000000000000e+00  1.3455033127427529e+00 -9.3223604390570036e-02 0.0000000000000000e+00  1.1525828615712230e+00 -5.7647151862075065e-05 0.0000000000000000e+00  1.1522323381366999e+00 1.7637489931222000e-05 0.0000000000000000e+00  1.1894676316906456e+00 -1.3673115054911117e-01 0.0000000000000000e+00  8.9019182878400116e-01 -3.8004291438086375e-04 0.0000000000000000e+00  1.1454396210627134e+00 -7.2305164842850192e-04 0.0000000000000000e+00  1.5827133297856952e+00 -5.5119576490082456e-01 0.0000000000000000e+00  1.0235801511581066e+00 1.8956404021487302e-04 0.0000000000000000e+00  7.3822884348284912e-01 -7.8604929915246508e-02 0.0000000000000000e+00  1.4895005534513399e+00 -3.2650223181205175e-02 0.0000000000000000e+00  1.0084017359643220e+00 7.9325654653425500e-03 0.0000000000000000e+00  9.3508106439391037e-01 1.6269652696317171e-04 0.0000000000000000e+00  1.5337385496392437e+00 4.7840372284521127e-01 0.0000000000000000e+00  1.0084003386883797e+00 1.8286779690900551e-01 0.0000000000000000e+00  9.9703393971892229e-01 1.6618614081857574e-04 0.0000000000000000e+00  1.9127924641258205e+00 2.6612638527218713e-01 0.0000000000000000e+00  1.4573859037343526e+00 -5.1090980371171801e-01 0.0000000000000000e+00  9.7702826141758670e-01 -1.9172419725860365e-01 0.0000000000000000e+00  9.6837798567400213e-01 -1.5553485733050675e-02 0.0000000000000000e+00  7.4041884116342094e-01 -2.8907711900070632e-02 0.0000000000000000e+00  9.7626136407228870e-01 5.5235775266037574e-05 0.0000000000000000e+00  1.0163678052266698e+00 6.1264093156100579e-05 0.0000000000000000e+00  1.1514120152828180e+00 -4.6483852556250185e-04 0.0000000000000000e+00  2.5992068790061618e-01 -2.5642474031233625e-01 0.0000000000000000e+00  1.4062434350134096e+00 -1.6115231615991786e-06 0.0000000000000000e+00  1.1526126555604352e+00 5.4738144917878075e-05 0.0000000000000000e+00  9.9788737072187506e-01 -6.6556539419882019e-04 0.0000000000000000e+00  1.4062432102064299e+00 -1.3503106033280347e-06 0.0000000000000000e+00  9.9776790220469713e-01 1.3979253415291540e-05 0.0000000000000000e+00  1.1496155043311969e+00 -8.1530500586152483e-03 0.0000000000000000e+00  1.1563674076316952e+00 6.7543051986769978e-02 0.0000000000000000e+00  1.1519823398869384e+00 -1.5398911201397942e-05 0.0000000000000000e+00  7.1567762505495758e-01 9.9648846692404008e-02 0.0000000000000000e+00  1.1525413169100682e+00 -2.0457407914450340e-05 0.0000000000000000e+00  9.7742129581450232e-01 -2.4771444439008664e-04 0.0000000000000000e+00  8.7373927062588064e-01 5.2682744450202892e-02 0.0000000000000000e+00  8.3613935775960757e-01 6.9515837428045434e-05 0.0000000000000000e+00  1.1505840072983498e+00 -1.2655688585822991e-06 0.0000000000000000e+00  8.3654036235183549e-01 3.4677398546392187e-06 0.0000000000000000e+00  9.413841208019877