<?xml version="1.0"?>
<VTKFile type="UnstructuredGrid"  version="0.1"  >
<UnstructuredGrid>
<Piece  NumberOfPoints="2446" NumberOfCells="4585">
<Points>
<DataArray  type="Float64"  NumberOfComponents="3"  format="ascii">0 0.41 0  0 0 0  2.2 0 0  2.2 0.41 0  0.2404508497187474 0.2293892626146237 0  0.25 0.2 0  0.2404508497187474 0.1706107373853764 0  0.2154508497187474 0.1524471741852423 0  0.1845491502812526 0.1524471741852423 0  0.1595491502812526 0.1706107373853764 0  0.15 0.2 0  0.1595491502812526 0.2293892626146237 0  0.1845491502812527 0.2475528258147577 0  0.2154508497187474 0.2475528258147577 0  1.1 0 0  1.1 0.41 0  0 0.205 0  0.55 0 0  0.55 0.41 0  0.275 0 0  0.275 0.41 0  1.65 0.41 0  1.65 0 0  0.8250000000000001 0.41 0  0.8250000000000001 0 0  1.375 0 0  1.375 0.41 0  1.925 0 0  1.925 0.41 0  1.5125 0.205 0  1.7875 0.205 0  0.6875 0.205 0  0.9625000000000001 0.205 0  1.2375 0.205 0  2.2 0.205 0  0.4687002074688797 0.2068568464730291 0  1.99375 0.2152743902439024 0  2.0625 0 0  2.0625 0.41 0  2.2 0.3075 0  0.4125 0 0  0.4125 0.41 0  1.7875 0.41 0  1.375 0.1486128048780488 0  1.5125 0 0  1.7875 0 0  1.5125 0.41 0  0.8250000000000001 0.2613871951219511 0  0.9625000000000001 0.41 0  0.9625000000000001 0 0  0.6875 0.41 0  0.6875 0 0  0.1375 0 0  0.1375 0.41 0  1.2375 0 0  1.1 0.1486128048780487 0  1.2375 0.41 0  1.65 0.1486128048780487 0  1.126715909090909 0.2793064024390244 0  1.676715909090909 0.2793064024390244 0  0.8517159090909092 0.1306935975609756 0  1.348284090909091 0.2793064024390244 0  0.34375 0.3032389320646208 0  1.894702181800738 0.1282910975492754 0  2.092797818199262 0.1282910975492754 0  1.85625 0.3075 0  0.61875 0.3075 0  0.61875 0.1025 0  0.3648540804333487 0.1240075933101478 0  0 0.3075 0  0 0.1025 0  2.099172119769978 0.25625 0  0.48125 0.09238439620688085 0  0.5781001037344399 0.2059284232365146 0  0.48125 0.3196743479159776 0  0.7265881057911006 0.3055240343720796 0  1.99375 0.08395950269330846 0  1.459960956013612 0.3075 0  1.569025960719943 0.2986889805672169 0  0.75625 0.08213100772579164 0  1.03125 0.3278689922742084 0  0.923871252904788 0.3078247185783941 0  1.959375 0.3126371951219512 0  1.749222215368287 0.1025 0  1.275777784631713 0.1025 0  2.2 0.1025 0  1.225938124459196 0.3075 0  1.550777784631713 0.1025 0  1.000777784631713 0.1025 0  1.44375 0.07430640243902442 0  1.16875 0.07430640243902437 0  1.899250267340833 0.2229966846119207 0  0.1020898364287272 0.3140258291809757 0  1.766482954545455 0.2934032012195123 0  0.3405058858996321 0.2119987970531874 0  0.7710785630958338 0.1710968191298857 0  1.046078563095834 0.2389031808701144 0  0.2 0.3400647632937836 0  1.421109702350723 0.2261157654379721 0  0.2800464974185557 0.08982544815605742 0  0.098916018031319 0.09171660955420841 0  2.13125 0 0  2.118919042110979 0.3422084711244843 0  1.30625 0.41 0  0.89375 0 0  1.597888256393107 0.2173787389261347 0  0.20625 0 0  1.829299675393195 0.07400700849299596 0  1.71875 0.41 0  1.16875 0.41 0  2.038220665644273 0.332420740103091 0  0.34375 0 0  0.417496017710808 0.2696595573092803 0  0.2 0.07687845740457822 0  0.9295982307099278 0.1343158415898188 0  0.07390688010811153 0.1697064032433452 0  0.5238366813727013 0.2578302467013575 0  0.05452951551825875 0.25625 0  0.5229630068078351 0.1548816096928243 0  1.452769549894695 0.1548122580621249 0  1.369219062229598 0.07430640243902442 0  1.30625 0 0  0.8504409521244898 0.3356935975609756 0  0.8821881244591965 0.205 0  1.720943423819132 0.1714577452753128 0  1.157188124459196 0.205 0  1.094219062229598 0.07430640243902437 0  1.03125 0 0  1.304056576180868 0.1714577452753128 0  1.67579304192913 0.07430640243902437 0  0.2751941921308361 0.3346083473122598 0  1.209670467133757 0.1362100266964769 0  1.025335513626278 0.1700681449722324 0  0.7562500000000001 0.41 0  1.58125 0 0  0.7567170593862014 0.2409196493502535 0  0.6926714215682891 0.1272249611432207 0  0.4139715849905988 0.3397932387114203 0  0.9840787304190477 0.2717749043358119 0  0.06875000000000001 0.41 0  0 0.35875 0  0.9281250000000001 0.06276726142697993 0  0.5507396469029935 0.3219409231578227 0  0.5504468037989405 0.09136885600634273 0  1.58125 0.41 0  1.631724228912893 0.3381867502687533 0  1.825608881788174 0.14499488549201 0  1.85625 0 0  1.44375 0 0  1.44375 0.41 0  1.85625 0.41 0  2.13125 0.41 0  0.7562500000000001 0 0  0.89375 0.41 0  0.4812500000000001 0 0  0.34375 0.41 0  0.4812500000000001 0.41 0  0.20625 0.41 0  0.06875000000000001 0 0  1.16875 0 0  0.61875 0 0  0.61875 0.41 0  1.03125 0.41 0  1.71875 0 0  1.99375 0 0  1.99375 0.41 0  1.340625 0.3489494290853124 0  1.134375 0.3489494290853123 0  1.700180620188976 0.3438659752031281 0  2.135782184673599 0.07126652247502523 0  1.668441847249787 0.2129203728327609 0  1.295782514339747 0.2378437748815763 0  0.8233075729931248 0.06842334294821524 0  1.409375 0.3520314716057996 0  0.403505597322782 0.182067236678212 0  0.378125 0.05794951541303489 0  0.3043468223249023 0.1518321115979534 0  2.129248544730567 0.1906135162504124 0  2.060771381434487 0.1989445750470348 0  2.013252586573865 0.1496169464686054 0  1.942766402200229 0.1734448904596831 0  1.895522487186454 0.06076163953489683 0  2.069553871656643 0.06605731020975725 0  1.274680914880868 0.3520219391081363 0  1.614713220494657 0.09473434380863296 0  0.7899021319497519 0.3149123934144827 0  0.69518737419149 0.0634051089053758 0  0.2971740475496061 0.2592172353407536 0  1.72990325744076 0.2380068107952482 0  1.356580098625191 0.2120393231351682 0  2.034370752044885 0.2668681600792073 0  1.51768709249349 0.3426260931494756 0  1.561883724969884 0.1650446847858835 0  1.197344062229598 0.2523725417393646 0  1.804085235518364 0.3468178408964637 0  1.817887819205233 0.2589243285818559 0  1.905897727272727 0.3485060975609756 0  0.6719798073392919 0.2688965171178177 0  0 0.05125 0  0.653125 0.35875 0  0.6396896119294488 0.1627615407790282 0  0.4274150154087412 0.1242548552168279 0  1.192836486056382 0.3562350748565544 0  0.8279124365364005 0.183856489168822 0  1.097485222388854 0.2083571153401724 0  1.28257088594801 0.2944411014911587 0  1.474860187679412 0.2504218616229368 0  1.406767003493824 0.2829282258560709 0  0.446875 0.04619219810344041 0  0.515625 0.04585361801037557 0  0.592043440706648 0.05125 0  1.845656689180403 0.1998310418452388 0  2.144958525570388 0.2909790873294231 0  0.6171090763650112 0.2492366900333857 0  2.2 0.15375 0  0.5145586920831158 0.3648371739579888 0  1.57794966442982 0.3540357145964566 0  0.721875 0.3633107922168974 0  0.0496154796471391 0.333125 0  0.5843750000000001 0.3662560860076676 0  0.5810878747760798 0.1474002776121195 0  1.508991196088596 0.1421783375065625 0  0.8840670607017558 0.2640994375393898 0  0.09776612425612034 0.2204896805326566 0  1.50436820029908 0.06143401634903343 0  1.223857000523521 0.0823554862453532 0  1.153316824384777 0.1289850171317837 0  2.148922302309752 0.1258841779285271 0  0.309375 0.04312325590431198 0  1.621993280276081 0.2841214267927899 0  1.550118654119087 0.2461998729100966 0  1.327182649291491 0.1216967252533594 0  1.051977450479407 0.1221382572915816 0  1.753125 0.04556020050186112 0  1.271875 0.04556020050186116 0  0.9816084133102366 0.05126138213476004 0  1.039051841454368 0.0572224914831029 0  0.9719230514536006 0.3480477870845102 0  1.94956388244759 0.1180512551534177 0  1.949997712993411 0.04965831614304109 0  1.771961817615021 0.1530278789497521 0  1.909246823951428 0.2812757146784527 0  0.2459536687882397 0.04668633953831142 0  1.948575539857022 0.2445328248721197 0  1.697271520964565 0.1233917627620729 0  0.7964897648514618 0.1211426571931604 0  1.065625 0.3689344961371042 0  1.085849084308977 0.3170853572226867 0  0.4702981435440001 0.260434880697798 0  1.577403511714593 0.05463601888079143 0  0.05622663515370135 0.05493816910862376 0  0.3267207591099919 0.3566194660323104 0  0.9003051618565143 0.3564049499960621 0  1.751571320346033 0.3651102912045228 0  0.1583785085108421 0.2994699345738728 0  0.1455283439499995 0.3542795598723423 0  2.2 0.35875 0  0.2347662494194072 0.298325008655211 0  0.1527284455616188 0.1065771775690181 0  0.1382139529076665 0.05427454456341477 0  0.8749341636311069 0.05110114999892954 0  0.643661668713109 0.05693499781019222 0  1.466879772203159 0.3611261772912453 0  1.990280163552011 0.3564754268533217 0  1.17471064520912 0.2990917256188288 0  0.5202693090594349 0.206382495511728 0  0 0.25625 0  2.2 0.25625 0  2.2 0.05125 0  0 0.15375 0  1.853978576207987 0.35875 0  0.9787513713939683 0.1487523696999336 0  0.240625 0.3722153812029779 0  1.515638456102889 0.2882700110184686 0  0.09048297387599738 0.3637717362208066 0  2.150453692751374 0.2387066338105111 0  1.323782677156475 0.04897634338873398 0  0.8074131292871642 0.3624701995505916 0  1.409375 0.03715320121951221 0  1.406484531114799 0.1087852750766809 0  1.134375 0.03715320121951218 0  1.627401732573545 0.04552157221025036 0  0.1170173172005315 0.1427610859166811 0  2.045405893604797 0.1105340662939892 0  1.255408269734577 0.1577307500159216 0  2.028125 0.03707597992059326 0  0.4743610090857199 0.1421513964721819 0  0.9354010469015898 0.250631300585664 0  0.04420832937638274 0.128125 0  0.8922386349349938 0.0992956419364831 0  0.1197849154434487 0.2663398672460083 0  1.248258025468107 0.2565907092181813 0  0.3746885856929528 0.370723531618974 0  1.203125 0.0366132337404304 0  0.5724622277005015 0.2751253816079333 0  0.3365425205162783 0.08395777655057959 0  2.072662025974815 0.2975086504196739 0  0.4581080832182547 0.3648371739579888 0  0.3874522734668214 0.2295447548840689 0  0.7827853612484443 0.04106550386289586 0  1.887722846421017 0.1760882698830035 0  1.472640588990488 0.1118278026240017 0  1.865937103925594 0.2604137786483804 0  1.463913572748262 0.2030442564990043 0  1.376426316059077 0.3186741374914345 0  0.6641993820150034 0.3141688596240831 0  0.2943117490824315 0.2130987422685822 0  0.3478153998082709 0.1666571081082676 0  0.3427990510599805 0.2575950027870776 0  0.7997118993855807 0.2216171933356366 0  
[...]
<PointData  Vectors="f_31"> 
<DataArray  type="Float64"  Name="f_31"  NumberOfComponents="3" format="ascii">-9.7383203976569467e-07 -1.3972670919313061e-06 0.0000000000000000e+00  -4.3520867855688250e-06 2.6917615441400594e-07 0.0000000000000000e+00  4.9050033564098915e-06 -6.3007045002256133e-07 0.0000000000000000e+00  -1.9503761762287722e-05 -5.4665803202656931e-07 0.0000000000000000e+00  1.6588576510315023e-05 -3.5174156778718641e-05 0.0000000000000000e+00  6.5755935452168523e-05 -1.5427387217061515e-05 0.0000000000000000e+00  5.6064175043909676e-05 8.3258224073114774e-06 0.0000000000000000e+00  4.5611412065830033e-05 -2.6181197412596956e-05 0.0000000000000000e+00  8.0203658850081308e-05 -8.4984589600172150e-05 0.0000000000000000e+00  -7.5029853979659058e-06 6.0492011619547788e-06 0.0000000000000000e+00  5.0947562150919556e-06 9.5630227351917807e-06 0.0000000000000000e+00  8.4121191393833938e-06 -2.0773467768359799e-05 0.0000000000000000e+00  4.9797133743857180e-05 3.6278020144255114e-05 0.0000000000000000e+00  1.5794190149682165e-05 1.6739452752244665e-05 0.0000000000000000e+00  -4.4447272945176440e-06 -9.9366089225916601e-08 0.0000000000000000e+00  1.4354826606725944e-08 3.7342712913824307e-07 0.0000000000000000e+00  1.5000031256025290e+00 9.6541714109037538e-07 0.0000000000000000e+00  -9.1159426794000653e-06 -5.3928387118081494e-08 0.0000000000000000e+00  2.9210281773915720e-06 -2.9725315064674177e-07 0.0000000000000000e+00  1.2270657010070361e-05 3.7614124810923973e-06 0.0000000000000000e+00  4.7593436695630222e-06 -1.4938301571846862e-06 0.0000000000000000e+00  -1.2589655895325463e-07 1.5022940644583985e-07 0.0000000000000000e+00  -1.4386919009859567e-06 1.6993453915494330e-07 0.0000000000000000e+00  3.1854382572206387e-07 1.4072233508839221e-08 0.0000000000000000e+00  -8.8696146190907693e-06 6.4956525183853407e-07 0.0000000000000000e+00  -3.5169092803854677e-06 -1.1097532079462173e-07 0.0000000000000000e+00  -3.8751663677605232e-09 -1.7272287219683099e-07 0.0000000000000000e+00  -4.7833303774382548e-06 3.7339756812001905e-08 0.0000000000000000e+00  -3.8527665778574319e-06 2.6463874306451862e-07 0.0000000000000000e+00  1.0654781654116734e+00 4.6750808111234363e-07 0.0000000000000000e+00  1.0654365309892628e+00 -9.1239429796405892e-06 0.0000000000000000e+00  1.0646020891614525e+00 -9.6218603375831642e-04 0.0000000000000000e+00  1.0653641844980888e+00 -9.7300930576268163e-05 0.0000000000000000e+00  1.0653186118215345e+00 7.6836773942614712e-06 0.0000000000000000e+00  1.0663117921556677e+00 8.3387615036152344e-05 0.0000000000000000e+00  1.0324829709178631e+00 -7.9529149341342250e-03 0.0000000000000000e+00  1.0653990737851804e+00 2.7365707554437867e-05 0.0000000000000000e+00  -1.2203092889712467e-06 4.0738850102286293e-08 0.0000000000000000e+00  -2.1010579276513032e-06 1.5828829051341847e-07 0.0000000000000000e+00  1.0657562660904605e+00 -1.2466275974573997e-03 0.0000000000000000e+00  -9.3423358312881661e-06 1.8099379982958714e-08 0.0000000000000000e+00  -1.3776953518031458e-06 9.1659713571787305e-07 0.0000000000000000e+00  -8.3970284757890632e-06 -4.6817535073047867e-08 0.0000000000000000e+00  1.0654286753125690e+00 2.0766203063432094e-05 0.0000000000000000e+00  -3.1659530825477259e-06 3.9896197448898215e-08 0.0000000000000000e+00  -4.3862342634175651e-06 -3.0346484832636868e-07 0.0000000000000000e+00  -9.9752362528963680e-07 -6.5748148358899613e-07 0.0000000000000000e+00  1.0654637888390428e+00 -3.1603739129329483e-04 0.0000000000000000e+00  -2.9621243926207408e-06 1.8156307919784269e-07 0.0000000000000000e+00  2.0938232148137453e-06 6.8205351463594496e-08 0.0000000000000000e+00  3.8364981370415393e-06 -1.9766852295019831e-07 0.0000000000000000e+00  -7.9197474916308923e-06 -2.6489693095936665e-07 0.0000000000000000e+00  -2.2727822880386119e-05 1.5699600202986128e-05 0.0000000000000000e+00  -2.6403739993982453e-05 -6.7059299561181682e-06 0.0000000000000000e+00  -1.1286117573481007e-06 2.8626902789567662e-07 0.0000000000000000e+00  1.0652494940466803e+00 -3.9735318956621821e-05 0.0000000000000000e+00  -2.4311806536087420e-06 -1.6734082862307831e-07 0.0000000000000000e+00  1.0654396329648308e+00 -4.0507751140798124e-05 0.0000000000000000e+00  1.0653192122040172e+00 4.8982444074476419e-07 0.0000000000000000e+00  1.0653960044822990e+00 -8.0528351443300350e-05 0.0000000000000000e+00  1.0653028106589477e+00 -7.5354143237130026e-05 0.0000000000000000e+00  1.0654708913896807e+00 1.4232869040308981e-04 0.0000000000000000e+00  1.1943237842220047e+00 -2.0213558349906480e-01 0.0000000000000000e+00  1.0653450026367028e+00 -4.0459967932876415e-05 0.0000000000000000e+00  1.0655086037141870e+00 2.5285185942195917e-04 0.0000000000000000e+00  1.0653999879249301e+00 -3.8131024487779871e-05 0.0000000000000000e+00  1.0671023893861733e+00 -3.1859667353298995e-03 0.0000000000000000e+00  1.0643177256393741e+00 1.0030742662650867e-03 0.0000000000000000e+00  1.0692614921607075e+00 1.9041634500486390e-01 0.0000000000000000e+00  1.1249965367014629e+00 6.5308340289655155e-06 0.0000000000000000e+00  1.1249877093913021e+00 -5.0386872812749618e-06 0.0000000000000000e+00  1.0654375388189865e+00 -2.6245549315853245e-05 0.0000000000000000e+00  1.0710351559561977e+00 2.0203539930524976e-02 0.0000000000000000e+00  1.0606133589432611e+00 -2.4954122980747630e-03 0.0000000000000000e+00  1.0807541729225958e+00 -2.4674264801485303e-02 0.0000000000000000e+00  1.0658616884168619e+00 -8.8136611246601433e-04 0.0000000000000000e+00  1.0653162101896925e+00 2.4596893377984468e-04 0.0000000000000000e+00  1.0651029121397706e+00 5.3767960861912993e-05 0.0000000000000000e+00  1.0651976021636718e+00 3.7443381653989683e-05 0.0000000000000000e+00  1.0648648422395799e+00 -1.8632269371269853e-04 0.0000000000000000e+00  1.0643675981090583e+00 3.1646230068160119e-04 0.0000000000000000e+00  1.0655222085261593e+00 -1.5040072595321187e-04 0.0000000000000000e+00  1.0652284203988818e+00 -5.9262516599111683e-05 0.0000000000000000e+00  1.0653075176559483e+00 -1.0293287232369148e-04 0.0000000000000000e+00  1.0655622531834685e+00 2.0224142655240600e-04 0.0000000000000000e+00  1.0658116366933279e+00 1.2097230811476457e-03 0.0000000000000000e+00  1.0655136849378342e+00 -2.7473558923695655e-04 0.0000000000000000e+00  1.0653436142192232e+00 -1.2818439881128561e-04 0.0000000000000000e+00  1.0653762927100450e+00 -5.4637045041509062e-05 0.0000000000000000e+00  1.0649032903587412e+00 6.6220667600899109e-05 0.0000000000000000e+00  1.0650913972003409e+00 -1.9590357770848696e-04 0.0000000000000000e+00  1.0653326043514910e+00 2.2875818950402459e-06 0.0000000000000000e+00  1.2098127117153763e+00 2.3297194867380314e-01 0.0000000000000000e+00  1.0653512761237807e+00 8.7809058037620905e-05 0.0000000000000000e+00  6.2150400047907517e-01 -1.7459951539501059e-01 0.0000000000000000e+00  1.0650862870486619e+00 -3.5828526401152316e-04 0.0000000000000000e+00  1.0653792564084663e+00 -3.2646544695752978e-05 0.0000000000000000e+00  1.3107026993113551e+00 2.5605165978783928e-01 0.0000000000000000e+00  1.0653782869789559e+00 5.0069759034385805e-05 0.0000000000000000e+00  1.4312455013069296e+00 1.6926480404445651e-01 0.0000000000000000e+00  1.1725743749038338e+00 -2.3158143757492630e-01 0.0000000000000000e+00  -8.4407541012375961e-07 2.1489366514033326e-07 0.0000000000000000e+00  1.0638676697497873e+00 9.9061459453813177e-05 0.0000000000000000e+00  -3.6584890984184002e-06 -3.9014636526695888e-07 0.0000000000000000e+00  -7.8938591185738623e-06 -2.7227644002613801e-07 0.0000000000000000e+00  1.0654593079360539e+00 -5.4723386885769770e-05 0.0000000000000000e+00  -1.6616375765877193e-05 8.0233137110825918e-07 0.0000000000000000e+00  1.0648998824080571e+00 -2.6058041246367509e-04 0.0000000000000000e+00  -4.9597216860039779e-06 3.2666678651147755e-07 0.0000000000000000e+00  -5.1846829542705613e-06 -1.1812484729864495e-07 0.0000000000000000e+00  1.0654975761019170e+00 4.5464427465793304e-04 0.0000000000000000e+00  2.5244777269769941e-06 6.0630719292527112e-08 0.0000000000000000e+00  1.0461875789281694e+00 -8.1990515697856814e-02 0.0000000000000000e+00  1.4090780667827529e+00 -2.7057998076897927e-01 0.0000000000000000e+00  1.0653166673360597e+00 -1.6228635989607590e-04 0.0000000000000000e+00  1.3433971175387864e+00 -1.0858291685320652e-01 0.0000000000000000e+00  1.0599012318618828e+00 -1.3252046130215129e-02 0.0000000000000000e+00  1.3752176423315285e+00 1.1605269322879687e-01 0.0000000000000000e+00  1.0558020926737446e+00 6.2119725001034904e-03 0.0000000000000000e+00  1.0652843833527652e+00 2.5155781032644052e-05 0.0000000000000000e+00  1.0647193603117149e+00 -5.3791843231943055e-04 0.0000000000000000e+00  -3.8849433449496598e-07 2.4645155052803674e-07 0.0000000000000000e+00  1.0654299433204524e+00 1.3602157420899804e-04 0.0000000000000000e+00  1.0654238612723759e+00 -1.3063511144383768e-04 0.0000000000000000e+00  1.0653578515632716e+00 3.2092961904110458e-05 0.0000000000000000e+00  1.0652308576902918e+00 -1.2076861350188879e-06 0.0000000000000000e+00  1.0649950881525030e+00 -1.0115967751061509e-04 0.0000000000000000e+00  -4.6810786593469885e-06 1.4256549496212810e-07 0.0000000000000000e+00  1.0654402521851201e+00 6.9272993436185620e-05 0.0000000000000000e+00  1.0649024350524834e+00 -2.0490539151514650e-06 0.0000000000000000e+00  1.3944161358750311e+00 -7.3089321801733886e-02 0.0000000000000000e+00  1.0653302795433188e+00 7.8354937242988015e-05 0.0000000000000000e+00  1.0653208574487849e+00 -6.4771095943019636e-05 0.0000000000000000e+00  -5.5622913976066036e-07 -3.2404776597624836e-08 0.0000000000000000e+00  -1.5952312029178838e-05 -5.5110267376179895e-07 0.0000000000000000e+00  1.0654128312052054e+00 -6.6910419132180238e-04 0.0000000000000000e+00  1.0648364362433229e+00 -1.3632488385892963e-04 0.0000000000000000e+00  1.1286746972133528e+00 -5.1445577828759838e-02 0.0000000000000000e+00  1.0654644252817222e+00 -2.7930350518342133e-05 0.0000000000000000e+00  4.1508827957130885e-05 2.6328691025439259e-05 0.0000000000000000e+00  6.5624758868812838e-01 6.2498128588266022e-06 0.0000000000000000e+00  1.0635526200037397e+00 -8.9893491824217283e-04 0.0000000000000000e+00  1.0712481760588426e+00 -8.4267555017020039e-03 0.0000000000000000e+00  1.0660970939397023e+00 5.1571068926293115e-03 0.0000000000000000e+00  -6.9650456687545906e-06 7.1524335006248802e-07 0.0000000000000000e+00  1.0634829221066586e+00 3.4895111239670513e-04 0.0000000000000000e+00  1.0653114188227246e+00 -4.1473698480043871e-05 0.0000000000000000e+00  -5.1900217070592723e-06 2.1423396449100587e-08 0.0000000000000000e+00  -1.3638763813793539e-05 3.1476433757779315e-07 0.0000000000000000e+00  -5.8884958404909756e-06 4.4356440144131974e-07 0.0000000000000000e+00  6.3961459773294110e-07 -7.8390640574466713e-08 0.0000000000000000e+00  -3.4873555815147152e-06 2.8965405511221365e-07 0.0000000000000000e+00  -1.4317767180336916e-06 2.6445220316998698e-07 0.0000000000000000e+00  -1.2258274944576631e-06 3.9823149374364227e-09 0.0000000000000000e+00  -2.2710020142039412e-06 1.8865731861731799e-07 0.0000000000000000e+00  5.8859535813260324e-06 -1.7330787242193096e-06 0.0000000000000000e+00  -1.1628940844037353e-05 1.3499134461799060e-07 0.0000000000000000e+00  -2.3664836151570264e-05 -1.3119348018929976e-06 0.0000000000000000e+00  5.2363065274496766e-05 -2.4696092458550716e-05 0.0000000000000000e+00  -2.0477879804325104e-06 5.9871628115480457e-08 0.0000000000000000e+00  -7.2691010536665344e-06 -2.2785365836792282e-08 0.0000000000000000e+00  -5.9924832818249521e-06 -3.4771626924288999e-07 0.0000000000000000e+00  -2.7095969840626156e-06 -2.3244718436788920e-07 0.0000000000000000e+00  -8.0638008043065918e-06 -2.4880506962924518e-07 0.0000000000000000e+00  -3.5769809592066412e-06 1.2781660566410221e-07 0.0000000000000000e+00  3.1011954138253263e-07 -8.0032557826645639e-08 0.0000000000000000e+00  1.0611371609627180e+00 1.0998121211287799e-03 0.0000000000000000e+00  1.0643977332923764e+00 1.0469571036616915e-03 0.0000000000000000e+00  1.0649752186392438e+00 -1.7834519562060126e-04 0.0000000000000000e+00  1.0642443345583332e+00 3.2748926084888598e-04 0.0000000000000000e+00  1.0653847310030886e+00 -1.2326154195512262e-06 0.0000000000000000e+00  1.0654194685482945e+00 2.2915066497886458e-05 0.0000000000000000e+00  1.0639174520841110e+00 -7.5913079691046069e-04 0.0000000000000000e+00  1.0614934543021237e+00 1.4335269990928521e-03 0.0000000000000000e+00  9.5938233665022832e-01 3.3917249054156100e-02 0.0000000000000000e+00  1.1672678190379890e+00 6.1380103850075543e-02 0.0000000000000000e+00  1.0356342927227589e+00 5.7041798819183209e-01 0.0000000000000000e+00  1.0656861055509574e+00 1.9512880156230333e-04 0.0000000000000000e+00  1.0655550769417528e+00 9.9553991484199728e-05 0.0000000000000000e+00  1.0654509369395468e+00 1.1815171988038076e-04 0.0000000000000000e+00  1.0653359232885724e+00 2.5760355131016710e-05 0.0000000000000000e+00  1.0631359380801666e+00 -7.4991947850030181e-04 0.0000000000000000e+00  1.0639220005598933e+00 -6.1598763179971619e-04 0.0000000000000000e+00  1.0642686764848355e+00 1.1561926171081841e-04 0.0000000000000000e+00  1.0650294247166447e+00 -1.8420909575031440e-04 0.0000000000000000e+00  1.0656606333164333e+00 -3.2343675567482515e-04 0.0000000000000000e+00  1.0642717628932654e+00 -1.6034309719802721e-04 0.0000000000000000e+00  1.2782460733959484e+00 -5.3998001332429568e-01 0.0000000000000000e+00  1.0654238703816257e+00 -3.9226596700816211e-06 0.0000000000000000e+00  1.0653811431046860e+00 4.3323415176191202e-05 0.0000000000000000e+00  1.0654962724740438e+00 4.6273326065121656e-05 0.0000000000000000e+00  1.0643060631481258e+00 -1.0173884218781701e-05 0.0000000000000000e+00  1.0654171105379491e+00 -4.9556211033901438e-05 0.0000000000000000e+00  1.0653612792366989e+00 -5.5238773176580853e-05 0.0000000000000000e+00  1.0634645237682263e+00 4.6888202525994370e-05 0.0000000000000000e+00  1.0653849258569832e+00 1.0681999104350054e-05 0.0000000000000000e+00  1.0644397557153253e+00 1.0450459586352010e-03 0.0000000000000000e+00  1.0654928233401812e+00 -1.7229180786594305e-03 0.0000000000000000e+00  6.5624506297948892e-01 -5.7075586587132805e-06 0.0000000000000000e+00  1.0625186710305377e+00 -4.4265707980653839e-04 0.0000000000000000e+00  1.0637446402862196e+00 -2.3812571075041740e-04 0.0000000000000000e+00  1.0526566153799468e+00 6.0171674157962846e-02 0.0000000000000000e+00  1.0623167558516675e+00 -1.0567379539343036e-03 0.0000000000000000e+00  1.0651868193951650e+00 -2.0516915037556725e-04 0.0000000000000000e+00  1.0652416924636956e+00 -3.4994206369086930e-05 0.0000000000000000e+00  1.0656734640015801e+00 1.0735685063108876e-05 0.0000000000000000e+00  1.0653065469492378e+00 2.6883258362117555e-05 0.0000000000000000e+00  1.0652815694111601e+00 1.0119217119774353e-04 0.0000000000000000e+00  1.0909565904448337e+00 1.5370550477766958e-02 0.0000000000000000e+00  1.0669207788341812e+00 6.1306566432127087e-03 0.0000000000000000e+00  1.0602222575482161e+00 8.8203722832573680e-04 0.0000000000000000e+00  1.0653811073213941e+00 -1.8748308308710292e-05 0.0000000000000000e+00  1.0653790517947512e+00 -4.0856164187861514e-04 0.0000000000000000e+00  1.0642557940291728e+00 -3.2372189363454071e-03 0.0000000000000000e+00  1.0660979018282730e+00 6.7483478025007052e-04 0.0000000000000000e+00  1.0748451234316998e+00 -6.6519469819291280e-03 0.0000000000000000e+00  1.0643958311802626e+00 8.0453373291452612e-04 0.0000000000000000e+00  1.0557208207778828e+00 -1.4231930742590953e-03 0.0000000000000000e+00  9.4779117394077639e-01 7.0920216171053471e-02 0.0000000000000000e+00  1.0625309596490371e+00 -2.0157409968525105e-03 0.0000000000000000e+00  1.0620131834017024e+00 1.6722309332059967e-03 0.0000000000000000e+00  1.0653716364273935e+00 2.3477609829843655e-05 0.0000000000000000e+00  1.0653814473812093e+00 -1.5798633339546368e-04 0.0000000000000000e+00  1.2295630174089389e+00 1.5258518317710831e-01 0.0000000000000000e+00  1.0650087850008927e+00 -1.1953618361266350e-04 0.0000000000000000e+00  1.0650905179780512e+00 1.6344735052438200e-04 0.0000000000000000e+00  1.0653697123452859e+00 2.9733920273281307e-05 0.0000000000000000e+00  1.0656292130864440e+00 5.3683720467109710e-04 0.0000000000000000e+00  1.3018656820808394e+00 7.7436416410221587e-02 0.0000000000000000e+00  1.0652240502332750e+00 -6.0621265887484225e-05 0.0000000000000000e+00  1.0652813660024143e+00 -2.7536203118080131e-05 0.0000000000000000e+00  1.0655591735375085e+00 5.8040913705018981e-05 0.0000000000000000e+00  1.0652730181587535e+00 -8.0102724614518494e-05 0.0000000000000000e+00  1.0558414684204869e+00 -1.2708676512726983e-03 0.0000000000000000e+00  1.0571800991473388e+00 5.1458772353874535e-04 0.0000000000000000e+00  1.0637986660998524e+00 -2.0431868586515115e-04 0.0000000000000000e+00  1.0645729068186507e+00 -2.8432379872042965e-04 0.0000000000000000e+00  1.0648699783200704e+00 5.6568080499299277e-04 0.0000000000000000e+00  1.0653529192003908e+00 6.4114644545283794e-05 0.0000000000000000e+00  1.0548783723809203e+00 -7.3271240578555506e-04 0.0000000000000000e+00  1.0654241498130361e+00 -5.3865029609756826e-06 0.0000000000000000e+00  1.0654565768718325e+00 1.9103088523458579e-05 0.0000000000000000e+00  1.3645200690583050e+00 -5.9453103505742173e-04 0.0000000000000000e+00  1.0654198215896851e+00 -2.7332552407716621e-05 0.0000000000000000e+00  1.0654895126854911e+00 6.0253940171895810e-06 0.0000000000000000e+00  1.0650985586404629e+00 -1.3984615910801875e-04 0.0000000000000000e+00  1.0536020305956082e+00 -1.1465411891623167e-03 0.0000000000000000e+00  1.0654270271570951e+00 -9.7420761477601459e-05 0.0000000000000000e+00  1.0519672297466687e+00 -3.1499003753254998e-02 0.0000000000000000e+00  1.0613415609865551e+00 -3.8464491028480783e-04 0.0000000000000000e+00  7.5655446864951270e-01 -3.4698447784052587e-02 0.0000000000000000e+00  1.2722587541649133e+00 -8.1743255886120039e-02 0.0000000000000000e+00  1.0591695219763355e+00 -4.8930363955010413e-04 0.0000000000000000e+00  1.0556364312722817e+00 1.4990821426499217e-03 0.0000000000000000e+00  1.4926023784532267e+00 5.0886966377583231e-01 0.0000000000000000e+00  8.5538458270518936e-01 3.7179132103950835e-01 0.0000000000000000e+00  1.0593403325520383e+00 -2.6483492331789457e-03 0.0000000000000000e+00  1.6487569810861584e+00 4.8386333229212271e-02 0.0000000000000000e+00  1.4748320079271777e+00 -5.4972657804446790e-01 0.0000000000000000e+00  8.2628894522161311e-01 -3.7247926570851975e-01 0.0000000000000000e+00  1.0588473732603481e+00 -2.9084455113133215e-04 0.0000000000000000e+00  1.0596141109541972e+00 -3.8316889369092706e-04 0.0000000000000000e+00  1.0577667510377347e+00 1.4884687543400103e-03 0.0000000000000000e+00  1.0639571057824153e+00 -1.6160988782250789e-03 0.0000000000000000e+00  1.0652378920220462e+00 -1.0361691978762419e-04 0.0000000000000000e+00  1.0523674903145823e+00 -4.4093224706327986e-03 0.0000000000000000e+00  1.4062427435443419e+00 3.1478624277566703e-06 0.0000000000000000e+00  1.0662426261473241e+00 -3.9395738262407479e-04 0.0000000000000000e+00  1.0604973931889106e+00 2.7945225230205600e-04 0.0000000000000000e+00  1.4062412981689003e+00 -2.0910894687420547e-06 0.0000000000000000e+00  1.0637732246929017e+00 -5.2301043188261189e-04 0.0000000000000000e+00  1.0652281048421273e+00 -8.9057264425540530e-05 0.0000000000000000e+00  1.2959629450311347e+00 1.2662732803855593e-02 0.0000000000000000e+00  1.0652396889314009e+00 -2.5176913195247225e-05 0.0000000000000000e+00  6.6955500598649509e-01 1.1343079292416115e-01 0.0000000000000000e+00  1.0657525835876795e+00 -9.3760862014628064e-05 0.0000000000000000e+00  1.0608381615309288e+00 -7.1169143262973399e-04 0.0000000000000000e+00  1.0586015445964796e+00 -4.2994243061339493e-04 0.0000000000000000e+00  1.0446040815065092e+00 -2.2755574943820363e-03 0.0000000000000000e+00  1.0652893182531860e+00 -1.5488406260055990e-04 0.0000000000000000e+00  1.0471287488322820e+00 7.0751338859665507e-04 0.0000000000000000e+00  1.0564439082081074