<?xml version="1.0"?>
<VTKFile type="UnstructuredGrid"  version="0.1"  >
<UnstructuredGrid>
<Piece  NumberOfPoints="2446" NumberOfCells="4585">
<Points>
<DataArray  type="Float64"  NumberOfComponents="3"  format="ascii">0 0.41 0  0 0 0  2.2 0 0  2.2 0.41 0  0.2404508497187474 0.2293892626146237 0  0.25 0.2 0  0.2404508497187474 0.1706107373853764 0  0.2154508497187474 0.1524471741852423 0  0.1845491502812526 0.1524471741852423 0  0.1595491502812526 0.1706107373853764 0  0.15 0.2 0  0.1595491502812526 0.2293892626146237 0  0.1845491502812527 0.2475528258147577 0  0.2154508497187474 0.2475528258147577 0  1.1 0 0  1.1 0.41 0  0 0.205 0  0.55 0 0  0.55 0.41 0  0.275 0 0  0.275 0.41 0  1.65 0.41 0  1.65 0 0  0.8250000000000001 0.41 0  0.8250000000000001 0 0  1.375 0 0  1.375 0.41 0  1.925 0 0  1.925 0.41 0  1.5125 0.205 0  1.7875 0.205 0  0.6875 0.205 0  0.9625000000000001 0.205 0  1.2375 0.205 0  2.2 0.205 0  0.4687002074688797 0.2068568464730291 0  1.99375 0.2152743902439024 0  2.0625 0 0  2.0625 0.41 0  2.2 0.3075 0  0.4125 0 0  0.4125 0.41 0  1.7875 0.41 0  1.375 0.1486128048780488 0  1.5125 0 0  1.7875 0 0  1.5125 0.41 0  0.8250000000000001 0.2613871951219511 0  0.9625000000000001 0.41 0  0.9625000000000001 0 0  0.6875 0.41 0  0.6875 0 0  0.1375 0 0  0.1375 0.41 0  1.2375 0 0  1.1 0.1486128048780487 0  1.2375 0.41 0  1.65 0.1486128048780487 0  1.126715909090909 0.2793064024390244 0  1.676715909090909 0.2793064024390244 0  0.8517159090909092 0.1306935975609756 0  1.348284090909091 0.2793064024390244 0  0.34375 0.3032389320646208 0  1.894702181800738 0.1282910975492754 0  2.092797818199262 0.1282910975492754 0  1.85625 0.3075 0  0.61875 0.3075 0  0.61875 0.1025 0  0.3648540804333487 0.1240075933101478 0  0 0.3075 0  0 0.1025 0  2.099172119769978 0.25625 0  0.48125 0.09238439620688085 0  0.5781001037344399 0.2059284232365146 0  0.48125 0.3196743479159776 0  0.7265881057911006 0.3055240343720796 0  1.99375 0.08395950269330846 0  1.459960956013612 0.3075 0  1.569025960719943 0.2986889805672169 0  0.75625 0.08213100772579164 0  1.03125 0.3278689922742084 0  0.923871252904788 0.3078247185783941 0  1.959375 0.3126371951219512 0  1.749222215368287 0.1025 0  1.275777784631713 0.1025 0  2.2 0.1025 0  1.225938124459196 0.3075 0  1.550777784631713 0.1025 0  1.000777784631713 0.1025 0  1.44375 0.07430640243902442 0  1.16875 0.07430640243902437 0  1.899250267340833 0.2229966846119207 0  0.1020898364287272 0.3140258291809757 0  1.766482954545455 0.2934032012195123 0  0.3405058858996321 0.2119987970531874 0  0.7710785630958338 0.1710968191298857 0  1.046078563095834 0.2389031808701144 0  0.2 0.3400647632937836 0  1.421109702350723 0.2261157654379721 0  0.2800464974185557 0.08982544815605742 0  0.098916018031319 0.09171660955420841 0  2.13125 0 0  2.118919042110979 0.3422084711244843 0  1.30625 0.41 0  0.89375 0 0  1.597888256393107 0.2173787389261347 0  0.20625 0 0  1.829299675393195 0.07400700849299596 0  1.71875 0.41 0  1.16875 0.41 0  2.038220665644273 0.332420740103091 0  0.34375 0 0  0.417496017710808 0.2696595573092803 0  0.2 0.07687845740457822 0  0.9295982307099278 0.1343158415898188 0  0.07390688010811153 0.1697064032433452 0  0.5238366813727013 0.2578302467013575 0  0.05452951551825875 0.25625 0  0.5229630068078351 0.1548816096928243 0  1.452769549894695 0.1548122580621249 0  1.369219062229598 0.07430640243902442 0  1.30625 0 0  0.8504409521244898 0.3356935975609756 0  0.8821881244591965 0.205 0  1.720943423819132 0.1714577452753128 0  1.157188124459196 0.205 0  1.094219062229598 0.07430640243902437 0  1.03125 0 0  1.304056576180868 0.1714577452753128 0  1.67579304192913 0.07430640243902437 0  0.2751941921308361 0.3346083473122598 0  1.209670467133757 0.1362100266964769 0  1.025335513626278 0.1700681449722324 0  0.7562500000000001 0.41 0  1.58125 0 0  0.7567170593862014 0.2409196493502535 0  0.6926714215682891 0.1272249611432207 0  0.4139715849905988 0.3397932387114203 0  0.9840787304190477 0.2717749043358119 0  0.06875000000000001 0.41 0  0 0.35875 0  0.9281250000000001 0.06276726142697993 0  0.5507396469029935 0.3219409231578227 0  0.5504468037989405 0.09136885600634273 0  1.58125 0.41 0  1.631724228912893 0.3381867502687533 0  1.825608881788174 0.14499488549201 0  1.85625 0 0  1.44375 0 0  1.44375 0.41 0  1.85625 0.41 0  2.13125 0.41 0  0.7562500000000001 0 0  0.89375 0.41 0  0.4812500000000001 0 0  0.34375 0.41 0  0.4812500000000001 0.41 0  0.20625 0.41 0  0.06875000000000001 0 0  1.16875 0 0  0.61875 0 0  0.61875 0.41 0  1.03125 0.41 0  1.71875 0 0  1.99375 0 0  1.99375 0.41 0  1.340625 0.3489494290853124 0  1.134375 0.3489494290853123 0  1.700180620188976 0.3438659752031281 0  2.135782184673599 0.07126652247502523 0  1.668441847249787 0.2129203728327609 0  1.295782514339747 0.2378437748815763 0  0.8233075729931248 0.06842334294821524 0  1.409375 0.3520314716057996 0  0.403505597322782 0.182067236678212 0  0.378125 0.05794951541303489 0  0.3043468223249023 0.1518321115979534 0  2.129248544730567 0.1906135162504124 0  2.060771381434487 0.1989445750470348 0  2.013252586573865 0.1496169464686054 0  1.942766402200229 0.1734448904596831 0  1.895522487186454 0.06076163953489683 0  2.069553871656643 0.06605731020975725 0  1.274680914880868 0.3520219391081363 0  1.614713220494657 0.09473434380863296 0  0.7899021319497519 0.3149123934144827 0  0.69518737419149 0.0634051089053758 0  0.2971740475496061 0.2592172353407536 0  1.72990325744076 0.2380068107952482 0  1.356580098625191 0.2120393231351682 0  2.034370752044885 0.2668681600792073 0  1.51768709249349 0.3426260931494756 0  1.561883724969884 0.1650446847858835 0  1.197344062229598 0.2523725417393646 0  1.804085235518364 0.3468178408964637 0  1.817887819205233 0.2589243285818559 0  1.905897727272727 0.3485060975609756 0  0.6719798073392919 0.2688965171178177 0  0 0.05125 0  0.653125 0.35875 0  0.6396896119294488 0.1627615407790282 0  0.4274150154087412 0.1242548552168279 0  1.192836486056382 0.3562350748565544 0  0.8279124365364005 0.183856489168822 0  1.097485222388854 0.2083571153401724 0  1.28257088594801 0.2944411014911587 0  1.474860187679412 0.2504218616229368 0  1.406767003493824 0.2829282258560709 0  0.446875 0.04619219810344041 0  0.515625 0.04585361801037557 0  0.592043440706648 0.05125 0  1.845656689180403 0.1998310418452388 0  2.144958525570388 0.2909790873294231 0  0.6171090763650112 0.2492366900333857 0  2.2 0.15375 0  0.5145586920831158 0.3648371739579888 0  1.57794966442982 0.3540357145964566 0  0.721875 0.3633107922168974 0  0.0496154796471391 0.333125 0  0.5843750000000001 0.3662560860076676 0  0.5810878747760798 0.1474002776121195 0  1.508991196088596 0.1421783375065625 0  0.8840670607017558 0.2640994375393898 0  0.09776612425612034 0.2204896805326566 0  1.50436820029908 0.06143401634903343 0  1.223857000523521 0.0823554862453532 0  1.153316824384777 0.1289850171317837 0  2.148922302309752 0.1258841779285271 0  0.309375 0.04312325590431198 0  1.621993280276081 0.2841214267927899 0  1.550118654119087 0.2461998729100966 0  1.327182649291491 0.1216967252533594 0  1.051977450479407 0.1221382572915816 0  1.753125 0.04556020050186112 0  1.271875 0.04556020050186116 0  0.9816084133102366 0.05126138213476004 0  1.039051841454368 0.0572224914831029 0  0.9719230514536006 0.3480477870845102 0  1.94956388244759 0.1180512551534177 0  1.949997712993411 0.04965831614304109 0  1.771961817615021 0.1530278789497521 0  1.909246823951428 0.2812757146784527 0  0.2459536687882397 0.04668633953831142 0  1.948575539857022 0.2445328248721197 0  1.697271520964565 0.1233917627620729 0  0.7964897648514618 0.1211426571931604 0  1.065625 0.3689344961371042 0  1.085849084308977 0.3170853572226867 0  0.4702981435440001 0.260434880697798 0  1.577403511714593 0.05463601888079143 0  0.05622663515370135 0.05493816910862376 0  0.3267207591099919 0.3566194660323104 0  0.9003051618565143 0.3564049499960621 0  1.751571320346033 0.3651102912045228 0  0.1583785085108421 0.2994699345738728 0  0.1455283439499995 0.3542795598723423 0  2.2 0.35875 0  0.2347662494194072 0.298325008655211 0  0.1527284455616188 0.1065771775690181 0  0.1382139529076665 0.05427454456341477 0  0.8749341636311069 0.05110114999892954 0  0.643661668713109 0.05693499781019222 0  1.466879772203159 0.3611261772912453 0  1.990280163552011 0.3564754268533217 0  1.17471064520912 0.2990917256188288 0  0.5202693090594349 0.206382495511728 0  0 0.25625 0  2.2 0.25625 0  2.2 0.05125 0  0 0.15375 0  1.853978576207987 0.35875 0  0.9787513713939683 0.1487523696999336 0  0.240625 0.3722153812029779 0  1.515638456102889 0.2882700110184686 0  0.09048297387599738 0.3637717362208066 0  2.150453692751374 0.2387066338105111 0  1.323782677156475 0.04897634338873398 0  0.8074131292871642 0.3624701995505916 0  1.409375 0.03715320121951221 0  1.406484531114799 0.1087852750766809 0  1.134375 0.03715320121951218 0  1.627401732573545 0.04552157221025036 0  0.1170173172005315 0.1427610859166811 0  2.045405893604797 0.1105340662939892 0  1.255408269734577 0.1577307500159216 0  2.028125 0.03707597992059326 0  0.4743610090857199 0.1421513964721819 0  0.9354010469015898 0.250631300585664 0  0.04420832937638274 0.128125 0  0.8922386349349938 0.0992956419364831 0  0.1197849154434487 0.2663398672460083 0  1.248258025468107 0.2565907092181813 0  0.3746885856929528 0.370723531618974 0  1.203125 0.0366132337404304 0  0.5724622277005015 0.2751253816079333 0  0.3365425205162783 0.08395777655057959 0  2.072662025974815 0.2975086504196739 0  0.4581080832182547 0.3648371739579888 0  0.3874522734668214 0.2295447548840689 0  0.7827853612484443 0.04106550386289586 0  1.887722846421017 0.1760882698830035 0  1.472640588990488 0.1118278026240017 0  1.865937103925594 0.2604137786483804 0  1.463913572748262 0.2030442564990043 0  1.376426316059077 0.3186741374914345 0  0.6641993820150034 0.3141688596240831 0  0.2943117490824315 0.2130987422685822 0  0.3478153998082709 0.1666571081082676 0  0.3427990510599805 0.2575950027870776 0  0.7997118993855807 0.2216171933356366 0  
[...]
<PointData  Vectors="f_31"> 
<DataArray  type="Float64"  Name="f_31"  NumberOfComponents="3" format="ascii">2.1460435223458423e-06 5.7277221287764010e-08 0.0000000000000000e+00  -2.2830186565052059e-06 1.3903388041523401e-08 0.0000000000000000e+00  4.0566326873457952e-06 -1.1495058478858731e-08 0.0000000000000000e+00  -1.6675863260798849e-05 -1.0264141079836561e-08 0.0000000000000000e+00  -4.7285281553279909e-06 1.6203023922523072e-07 0.0000000000000000e+00  -6.8233897068049705e-06 1.6584021750829296e-05 0.0000000000000000e+00  -6.7098157491751926e-06 8.1553714840512118e-06 0.0000000000000000e+00  -6.8730392463868886e-06 -2.0952958239222629e-06 0.0000000000000000e+00  -9.2698167375867031e-06 -3.8039420755374589e-06 0.0000000000000000e+00  -5.7101105580840072e-06 8.4069942399220548e-07 0.0000000000000000e+00  1.1029776934575796e-06 8.4944131038975120e-06 0.0000000000000000e+00  -4.6836692050215084e-06 -3.4180509990786412e-06 0.0000000000000000e+00  9.4849716712224114e-06 3.3603669313912314e-06 0.0000000000000000e+00  -1.3051942833764235e-05 -7.4644676052828721e-07 0.0000000000000000e+00  -2.6302668255338191e-06 -1.4208718529182369e-08 0.0000000000000000e+00  -2.4667127363742870e-07 -1.1633988682605240e-08 0.0000000000000000e+00  1.5000042626757117e+00 1.4491563134723575e-06 0.0000000000000000e+00  -1.7769981078943751e-05 1.9131127648439507e-07 0.0000000000000000e+00  -7.3020138557019054e-06 -2.8845493868471416e-07 0.0000000000000000e+00  5.1320069407584108e-06 2.6062871581268912e-07 0.0000000000000000e+00  -1.8419985476644612e-06 -1.4189141939511267e-08 0.0000000000000000e+00  2.7194789476717572e-07 -3.4889231768182478e-09 0.0000000000000000e+00  -1.3799353898083901e-08 -1.0944887136046217e-08 0.0000000000000000e+00  1.5000689269060046e-06 -4.4018304560668050e-08 0.0000000000000000e+00  -5.3374048342784793e-06 1.8473336944905352e-08 0.0000000000000000e+00  -3.9560666511816042e-06 1.5214362868793451e-08 0.0000000000000000e+00  -9.8069465259085150e-07 -2.5356411306870995e-08 0.0000000000000000e+00  -3.1229275332540887e-06 2.7250825643374262e-08 0.0000000000000000e+00  -2.5238257314462412e-06 -1.8726408208702720e-08 0.0000000000000000e+00  1.1146387779145170e+00 6.0008925298276678e-05 0.0000000000000000e+00  1.1146261981896517e+00 -2.4273100012169215e-06 0.0000000000000000e+00  1.1197268178705106e+00 -7.1361923209522140e-03 0.0000000000000000e+00  1.1145002718491563e+00 -4.5419623650567596e-04 0.0000000000000000e+00  1.1142457553356673e+00 -4.6560283590669239e-05 0.0000000000000000e+00  1.1145218416696170e+00 1.7173196114995113e-05 0.0000000000000000e+00  5.2430770058444642e-01 -6.4154133397031313e-02 0.0000000000000000e+00  1.1144256650002462e+00 -1.7239210805871168e-05 0.0000000000000000e+00  7.9680977185713013e-08 1.6130568629612396e-08 0.0000000000000000e+00  -9.1399197261542582e-07 1.5826801157602917e-08 0.0000000000000000e+00  1.1141286685213827e+00 1.1419349130192908e-05 0.0000000000000000e+00  1.1179305542252655e-05 6.1660504118955340e-07 0.0000000000000000e+00  8.3960165868820946e-06 -2.1273490454534954e-07 0.0000000000000000e+00  -6.3976780734535600e-06 -3.4226716390123200e-08 0.0000000000000000e+00  1.1144758851481176e+00 7.2306708534950473e-05 0.0000000000000000e+00  -4.9395247544082763e-07 -3.4438949881932659e-08 0.0000000000000000e+00  -4.3983320429848137e-06 2.6416097351670184e-08 0.0000000000000000e+00  8.6301571907025629e-07 4.1748654999214562e-09 0.0000000000000000e+00  1.1161670174323126e+00 -6.9177704828225761e-04 0.0000000000000000e+00  -2.0000366122078311e-06 2.4117925061283274e-08 0.0000000000000000e+00  2.3535381511372943e-06 -5.2069146304714122e-09 0.0000000000000000e+00  1.0756379274146476e-06 -5.6471076443825214e-08 0.0000000000000000e+00  -7.5021932981932446e-06 1.9806977160761404e-07 0.0000000000000000e+00  -4.9051236318143346e-06 8.3225010193142856e-07 0.0000000000000000e+00  -5.0251082532811240e-06 -7.9903722297631603e-07 0.0000000000000000e+00  2.8345786034586975e-07 1.8348517030167859e-08 0.0000000000000000e+00  1.1143412844779581e+00 -1.0417154472403320e-04 0.0000000000000000e+00  -1.8430379825587579e-06 -1.6643475719454008e-08 0.0000000000000000e+00  1.1145817035651615e+00 1.9444194311159301e-05 0.0000000000000000e+00  1.1144536367861368e+00 -3.3784504574909985e-05 0.0000000000000000e+00  1.1142900994928224e+00 1.5584640887664914e-05 0.0000000000000000e+00  1.1140611189699696e+00 -1.7211263130860266e-03 0.0000000000000000e+00  1.1144825360056623e+00 -5.2088666703073249e-05 0.0000000000000000e+00  1.9328661164925343e+00 -1.9289591199878059e-01 0.0000000000000000e+00  1.1145650786575962e+00 -8.3679489121451115e-05 0.0000000000000000e+00  1.1144824006951251e+00 -6.3037760931631873e-05 0.0000000000000000e+00  1.1139280036646131e+00 -1.1469706410326019e-05 0.0000000000000000e+00  1.1454116707390258e+00 7.4793584416115669e-03 0.0000000000000000e+00  1.1243762028524429e+00 -2.0473621195624871e-02 0.0000000000000000e+00  1.8167019864075988e+00 3.7226939004130027e-01 0.0000000000000000e+00  1.1249990369131819e+00 5.5365410819891156e-07 0.0000000000000000e+00  1.1249900840262066e+00 1.0569647970254232e-06 0.0000000000000000e+00  1.1144339867452866e+00 -3.7965497749249979e-05 0.0000000000000000e+00  1.2480753088423189e+00 1.0779798274092958e-01 0.0000000000000000e+00  1.0936831756694794e+00 -2.5920973620744647e-02 0.0000000000000000e+00  1.2633270781236601e+00 -8.2167568166810256e-02 0.0000000000000000e+00  1.1198411071579761e+00 2.0973068023751877e-03 0.0000000000000000e+00  1.1123971098109255e+00 -1.3956944835354787e-04 0.0000000000000000e+00  1.1144671175081950e+00 -3.8792711211986789e-05 0.0000000000000000e+00  1.1140866066516695e+00 2.1558470654816828e-04 0.0000000000000000e+00  1.1080412177712609e+00 -4.6919032766479813e-03 0.0000000000000000e+00  1.1111303433186894e+00 3.0596706023595769e-04 0.0000000000000000e+00  1.1145625864070128e+00 -6.8915573500032484e-05 0.0000000000000000e+00  1.1140708636402719e+00 1.7573272980168548e-04 0.0000000000000000e+00  1.1136363324043208e+00 -2.4648900076858541e-04 0.0000000000000000e+00  1.1143141307233240e+00 -7.5552555959932752e-05 0.0000000000000000e+00  1.1139491368543897e+00 -1.6875059678946646e-04 0.0000000000000000e+00  1.1142551742006357e+00 6.4065247843554901e-05 0.0000000000000000e+00  1.1142522448699164e+00 -4.7733195510623633e-05 0.0000000000000000e+00  1.1141085071149432e+00 -2.3119298415611266e-04 0.0000000000000000e+00  1.1082396879716137e+00 2.5217443469567684e-04 0.0000000000000000e+00  1.1079086239712104e+00 -1.4865819063091817e-04 0.0000000000000000e+00  1.1144871271371684e+00 9.3903656865808954e-06 0.0000000000000000e+00  1.1892573387284593e+00 2.5566931640330887e-01 0.0000000000000000e+00  1.1142364076274804e+00 1.2628456274356249e-05 0.0000000000000000e+00  -7.2302103490668213e-01 -4.9973625191621823e-02 0.0000000000000000e+00  1.1155211093784883e+00 -3.8785378053757548e-03 0.0000000000000000e+00  1.1145746950002939e+00 -1.4324515622576051e-04 0.0000000000000000e+00  1.3974699272052578e+00 2.1488857238334097e-01 0.0000000000000000e+00  1.1143943249853685e+00 -7.2348065455622631e-06 0.0000000000000000e+00  1.8896945077833125e+00 -7.0276076530915790e-02 0.0000000000000000e+00  1.1389868412075419e+00 -2.4478927009310927e-01 0.0000000000000000e+00  -5.6686218902895369e-07 3.2801138830750586e-08 0.0000000000000000e+00  1.1015123758206373e+00 2.7453961835926654e-04 0.0000000000000000e+00  -2.1325857709218526e-06 1.6036154127572722e-08 0.0000000000000000e+00  -7.1938470569121580e-06 3.4765884917554394e-09 0.0000000000000000e+00  1.1146547054471330e+00 2.9135378145302633e-05 0.0000000000000000e+00  1.4322151556667094e-06 -3.1240224570312179e-07 0.0000000000000000e+00  1.1076167600551317e+00 2.9450670718637261e-05 0.0000000000000000e+00  -3.1920075184600868e-06 1.9321744224242087e-08 0.0000000000000000e+00  -2.1332437540133419e-06 1.1572417588717472e-08 0.0000000000000000e+00  1.1100478262822202e+00 -8.5122124457907321e-05 0.0000000000000000e+00  4.5965299768630692e-06 3.3115099234038696e-07 0.0000000000000000e+00  1.6164863957556335e+00 -4.8496456160198487e-01 0.0000000000000000e+00  1.5206021562807970e+00 -2.7223505981649865e-01 0.0000000000000000e+00  1.1142359001829312e+00 -7.3348993282486416e-04 0.0000000000000000e+00  1.3355677517382052e+00 -9.9900668666971615e-02 0.0000000000000000e+00  1.2442633574913768e+00 -9.1147603392341098e-02 0.0000000000000000e+00  1.3742516043804063e+00 1.3096587073549512e-01 0.0000000000000000e+00  1.1581891733723544e+00 5.9742000840964461e-02 0.0000000000000000e+00  1.1144773568912330e+00 1.0587541927540576e-04 0.0000000000000000e+00  1.1072393209021094e+00 -1.0203881047010639e-04 0.0000000000000000e+00  -5.5519588102332642e-07 1.2961976180710087e-09 0.0000000000000000e+00  1.1080880881083586e+00 5.0097243856572977e-04 0.0000000000000000e+00  1.1148541651188859e+00 -9.8984158168743345e-04 0.0000000000000000e+00  1.1145191107462216e+00 4.2497906307798832e-05 0.0000000000000000e+00  1.1142877308314110e+00 -3.8399913309587107e-05 0.0000000000000000e+00  1.1084231451138269e+00 -9.9518836306527534e-05 0.0000000000000000e+00  -3.3591123079178072e-06 1.5244118835832037e-08 0.0000000000000000e+00  1.1143728501644872e+00 -1.7242760720377107e-06 0.0000000000000000e+00  1.1075514212222393e+00 9.6386020112350758e-05 0.0000000000000000e+00  1.6399101119472883e+00 4.2531422370878959e-02 0.0000000000000000e+00  1.1143809061015306e+00 -4.4545750046511873e-05 0.0000000000000000e+00  1.1143674435881479e+00 -2.3995924177946948e-04 0.0000000000000000e+00  -1.2449128411410115e-06 -3.3928925343954224e-08 0.0000000000000000e+00  -1.4145729295961689e-05 -3.1793975028729431e-09 0.0000000000000000e+00  1.1182754207702563e+00 -2.1213587168179113e-03 0.0000000000000000e+00  1.1154257704461279e+00 -9.5035448165330626e-03 0.0000000000000000e+00  1.3674213255143646e+00 -1.6824687339528993e-01 0.0000000000000000e+00  1.1147855959396489e+00 -1.9778627208872680e-04 0.0000000000000000e+00  -2.8359285315644819e-06 -2.4697548008375114e-07 0.0000000000000000e+00  6.5625073235015519e-01 2.3801370749289763e-07 0.0000000000000000e+00  1.0922321642992732e+00 -4.0003432064971822e-04 0.0000000000000000e+00  1.1746415806600869e+00 2.0194801750559592e-02 0.0000000000000000e+00  1.1556807659799233e+00 -3.0374204257934197e-02 0.0000000000000000e+00  -5.4618898729388258e-06 7.3861100940310393e-09 0.0000000000000000e+00  1.1060548689675145e+00 3.1347714334513935e-04 0.0000000000000000e+00  1.1145703417988639e+00 -2.0440377806131958e-05 0.0000000000000000e+00  -3.7803310072568953e-06 1.9319442582539367e-08 0.0000000000000000e+00  -1.0881458915951199e-05 1.8362021544914290e-08 0.0000000000000000e+00  -4.7383720848574804e-06 -2.8026366788401313e-08 0.0000000000000000e+00  1.5639852179698000e-06 4.9574570262843635e-08 0.0000000000000000e+00  -2.8090819536868514e-06 -3.2321328132911805e-08 0.0000000000000000e+00  -1.0493747260898427e-06 3.1172718452082164e-08 0.0000000000000000e+00  5.8048942776809336e-07 -2.4173696241731951e-09 0.0000000000000000e+00  1.4262427960318313e-06 1.8086704795309708e-06 0.0000000000000000e+00  9.8334883854683843e-06 -1.4884101828188144e-07 0.0000000000000000e+00  -4.7940342129000591e-06 -1.6004063479354901e-06 0.0000000000000000e+00  -2.7873885234898957e-06 -6.3693054488327456e-07 0.0000000000000000e+00  6.5070678501476031e-07 1.1302002505911837e-07 0.0000000000000000e+00  -4.1095858973611693e-07 4.8518507514430288e-09 0.0000000000000000e+00  -1.3350733043778286e-05 2.5160103073239390e-07 0.0000000000000000e+00  -1.0589809184003687e-05 -3.8079797726998115e-07 0.0000000000000000e+00  -9.1150811268851906e-07 -1.9376067707905661e-09 0.0000000000000000e+00  -7.8229094315450455e-06 -2.4619011536210088e-08 0.0000000000000000e+00  -2.2364399057290219e-06 -1.2967904843595199e-08 0.0000000000000000e+00  -8.5591790949149065e-07 -1.6900705093828262e-09 0.0000000000000000e+00  1.0877333206006992e+00 3.1203518378156760e-04 0.0000000000000000e+00  1.0896049405101940e+00 -5.2858641400097633e-05 0.0000000000000000e+00  1.0990097948559101e+00 -1.2877270026296890e-04 0.0000000000000000e+00  1.1050499134820642e+00 -1.8436921538655918e-04 0.0000000000000000e+00  1.1146367382600708e+00 5.0426913546146968e-05 0.0000000000000000e+00  1.1142984103924478e+00 -4.2990482993276206e-05 0.0000000000000000e+00  1.0998230309557491e+00 -1.8161781853605428e-03 0.0000000000000000e+00  1.0810473362757440e+00 -3.2530690038779663e-04 0.0000000000000000e+00  -1.0000501056655900e-01 2.9345093271756495e-01 0.0000000000000000e+00  1.4326102979162951e+00 1.9035480310831754e-01 0.0000000000000000e+00  4.7244956647892511e-01 -1.8111335104969975e-01 0.0000000000000000e+00  1.1144533347044894e+00 -1.0952927723645640e-05 0.0000000000000000e+00  1.1145285905948634e+00 -3.1649337368105025e-05 0.0000000000000000e+00  1.1145533620622061e+00 -5.9922335829644672e-05 0.0000000000000000e+00  1.1145081931494882e+00 -3.6425664855929532e-05 0.0000000000000000e+00  1.0879557183641069e+00 1.4407400972413816e-04 0.0000000000000000e+00  1.0985559794290241e+00 -2.8966876065637917e-04 0.0000000000000000e+00  1.0817351785008842e+00 -1.4451126847299603e-04 0.0000000000000000e+00  1.1135061593802460e+00 -1.1713660895399609e-04 0.0000000000000000e+00  1.1159336971360234e+00 9.1139673732459827e-04 0.0000000000000000e+00  1.0851078155713667e+00 -1.0163282351150941e-02 0.0000000000000000e+00  8.2860093484657193e-01 3.9219983349816502e-02 0.0000000000000000e+00  1.1145498803581619e+00 2.1496057870689962e-05 0.0000000000000000e+00  1.1142740557013060e+00 -2.7195291517351135e-05 0.0000000000000000e+00  1.1144956588610331e+00 -2.3671129107042244e-05 0.0000000000000000e+00  1.1010208204123779e+00 4.6735194418864797e-04 0.0000000000000000e+00  1.1145975373317687e+00 3.8291694369061093e-05 0.0000000000000000e+00  1.1143725626542664e+00 1.1920911462753540e-05 0.0000000000000000e+00  1.0945757357277257e+00 -7.3857474452383164e-05 0.0000000000000000e+00  1.1144795633895641e+00 1.1607830390058987e-05 0.0000000000000000e+00  1.0908435844421263e+00 2.4917742257780798e-04 0.0000000000000000e+00  1.1269534139503530e+00 -2.9625514820922454e-03 0.0000000000000000e+00  6.5624823536831967e-01 5.0429043825944346e-08 0.0000000000000000e+00  1.0467397465415804e+00 1.5529854943946143e-02 0.0000000000000000e+00  1.1181934196822598e+00 -1.0267497224300632e-02 0.0000000000000000e+00  1.5978470745293438e+00 5.2976078966914619e-01 0.0000000000000000e+00  1.0660979671278836e+00 3.6318680464305454e-04 0.0000000000000000e+00  1.1149741351826077e+00 -2.0058808300596068e-03 0.0000000000000000e+00  1.1143360434642249e+00 -1.1405971783002598e-04 0.0000000000000000e+00  1.1144457395712311e+00 -6.1866481420747051e-05 0.0000000000000000e+00  1.1144731569584909e+00 1.2224450365978777e-05 0.0000000000000000e+00  1.1145097204042433e+00 -1.0935485357012610e-04 0.0000000000000000e+00  1.0175674308810361e+00 7.4009649912493369e-02 0.0000000000000000e+00  9.5695853581911106e-01 -2.6290104216751327e-02 0.0000000000000000e+00  1.0182158146190450e+00 -3.9678570924585599e-02 0.0000000000000000e+00  1.1145487339266813e+00 -2.0853079759332312e-05 0.0000000000000000e+00  1.1144631029274799e+00 -2.6463427565677662e-06 0.0000000000000000e+00  1.1329416314868939e+00 -1.6916762746775876e-02 0.0000000000000000e+00  1.1143280596227452e+00 4.7020144135111649e-05 0.0000000000000000e+00  9.8226974090299435e-01 1.3035823552846120e-02 0.0000000000000000e+00  1.0750643107959061e+00 3.6972321514886332e-04 0.0000000000000000e+00  1.0227254680847329e+00 3.9676528724561233e-03 0.0000000000000000e+00  9.4229936196285935e-01 9.5138915543156372e-02 0.0000000000000000e+00  9.7006813623751909e-01 2.9986648366629697e-02 0.0000000000000000e+00  1.1296697607272395e+00 2.6321642265775061e-03 0.0000000000000000e+00  1.1145883180648906e+00 1.0061575816906288e-04 0.0000000000000000e+00  1.1152474778998323e+00 -4.5560745421064649e-04 0.0000000000000000e+00  1.2249868151185410e+00 1.7532091240919881e-01 0.0000000000000000e+00  1.0914067837149644e+00 1.8206582906402161e-05 0.0000000000000000e+00  1.1115934964085497e+00 -5.9453691452684600e-05 0.0000000000000000e+00  1.1144682138186865e+00 -7.3595857099577119e-05 0.0000000000000000e+00  1.1145029413590435e+00 -1.1198660097183005e-04 0.0000000000000000e+00  1.3646296145860459e+00 5.3106290827563143e-02 0.0000000000000000e+00  1.1142564417332412e+00 7.2798988928458115e-05 0.0000000000000000e+00  1.1144031180320908e+00 4.3453242284855772e-05 0.0000000000000000e+00  1.1144652160080932e+00 5.2937815827976116e-05 0.0000000000000000e+00  1.1143529701071500e+00 -1.7353285718358567e-04 0.0000000000000000e+00  1.0187749590888660e+00 -3.6065743240174208e-04 0.0000000000000000e+00  1.0185532207718486e+00 -4.6330196241689829e-04 0.0000000000000000e+00  1.0560033097189248e+00 -3.4906109351191182e-04 0.0000000000000000e+00  1.0783809689553447e+00 9.7709437117893743e-05 0.0000000000000000e+00  1.0917168671568414e+00 -5.3514439715488321e-05 0.0000000000000000e+00  1.1145217740550240e+00 -1.0411805175295573e-04 0.0000000000000000e+00  1.0431756145167643e+00 -4.6120476191953907e-04 0.0000000000000000e+00  1.1146135039305523e+00 -1.3129814425141087e-05 0.0000000000000000e+00  1.1145611711523751e+00 3.4278818660223304e-05 0.0000000000000000e+00  1.3318364261869893e+00 -7.7953840152157075e-02 0.0000000000000000e+00  1.1145102589235654e+00 9.9547552335849886e-06 0.0000000000000000e+00  1.1145015218519148e+00 1.0879064233719809e-05 0.0000000000000000e+00  1.1134700945184406e+00 -3.2359084136953744e-03 0.0000000000000000e+00  9.7866215606964391e-01 -6.4895760846582019e-06 0.0000000000000000e+00  1.1138601389312042e+00 8.0688127730455841e-06 0.0000000000000000e+00  1.3665114713786233e+00 -3.5491559297865899e-01 0.0000000000000000e+00  1.0681883638617318e+00 -2.6673817781916259e-04 0.0000000000000000e+00  7.3716882810433271e-01 -7.6551220867740161e-02 0.0000000000000000e+00  1.3899510512625914e+00 -7.3404872699226506e-02 0.0000000000000000e+00  1.0641549563680262e+00 1.1486113365286587e-04 0.0000000000000000e+00  1.0129874174849365e+00 2.8031349832804208e-05 0.0000000000000000e+00  1.5386188477113503e+00 4.6729779901402024e-01 0.0000000000000000e+00  1.0058144079632700e+00 1.7606435340203883e-01 0.0000000000000000e+00  1.0539121626037953e+00 1.2097857800500908e-04 0.0000000000000000e+00  1.9193918537430230e+00 2.2071883800617093e-01 0.0000000000000000e+00  1.4574847420148851e+00 -5.0704052666113519e-01 0.0000000000000000e+00  9.7217807470148421e-01 -1.8840057588418008e-01 0.0000000000000000e+00  1.0517627810134307e+00 -7.7899880583535649e-04 0.0000000000000000e+00  1.0580740100565309e+00 -2.2243740790831235e-02 0.0000000000000000e+00  1.0409231134789072e+00 4.4902806539356705e-04 0.0000000000000000e+00  1.0651593323743942e+00 1.5170935982349880e-04 0.0000000000000000e+00  1.1144440292959987e+00 8.3462023803852107e-06 0.0000000000000000e+00  9.5903192843927376e-01 -5.2876017306319426e-02 0.0000000000000000e+00  1.4062435184027060e+00 1.0874789092058576e-06 0.0000000000000000e+00  1.1145727293902365e+00 9.9378627199679681e-05 0.0000000000000000e+00  1.0546346718600004e+00 -8.5577705387240193e-04 0.0000000000000000e+00  1.4062429284701137e+00 1.1982896592987825e-06 0.0000000000000000e+00  1.0546770349992358e+00 -3.4667518648145073e-04 0.0000000000000000e+00  1.1142683997180567e+00 -3.9928459352386430e-04 0.0000000000000000e+00  1.1250576007819513e+00 4.6243074841325969e-02 0.0000000000000000e+00  1.1145211882146326e+00 1.0128855462487897e-04 0.0000000000000000e+00  7.1578225050664557e-01 9.8989850752344608e-02 0.0000000000000000e+00  1.1144413738414696e+00 1.7070020018529898e-05 0.0000000000000000e+00  1.0416799695939458e+00 -1.5468571011532280e-04 0.0000000000000000e+00  1.0319461173589748e+00 1.2435717538060726e-03 0.0000000000000000e+00  9.3551215979947200e-01 2.9310343836115983e-04 0.0000000000000000e+00  1.1144086631639125e+00 7.7446181423737284e-05 0.0000000000000000e+00  9.3646818158241685e-01 -2.7901676314699838e-04 0.0000000000000000e+00  1.0170831484590