<?xml version="1.0"?>
<VTKFile type="UnstructuredGrid"  version="0.1"  >
<UnstructuredGrid>
<Piece  NumberOfPoints="2446" NumberOfCells="4585">
<Points>
<DataArray  type="Float64"  NumberOfComponents="3"  format="ascii">0 0.41 0  0 0 0  2.2 0 0  2.2 0.41 0  0.2404508497187474 0.2293892626146237 0  0.25 0.2 0  0.2404508497187474 0.1706107373853764 0  0.2154508497187474 0.1524471741852423 0  0.1845491502812526 0.1524471741852423 0  0.1595491502812526 0.1706107373853764 0  0.15 0.2 0  0.1595491502812526 0.2293892626146237 0  0.1845491502812527 0.2475528258147577 0  0.2154508497187474 0.2475528258147577 0  1.1 0 0  1.1 0.41 0  0 0.205 0  0.55 0 0  0.55 0.41 0  0.275 0 0  0.275 0.41 0  1.65 0.41 0  1.65 0 0  0.8250000000000001 0.41 0  0.8250000000000001 0 0  1.375 0 0  1.375 0.41 0  1.925 0 0  1.925 0.41 0  1.5125 0.205 0  1.7875 0.205 0  0.6875 0.205 0  0.9625000000000001 0.205 0  1.2375 0.205 0  2.2 0.205 0  0.4687002074688797 0.2068568464730291 0  1.99375 0.2152743902439024 0  2.0625 0 0  2.0625 0.41 0  2.2 0.3075 0  0.4125 0 0  0.4125 0.41 0  1.7875 0.41 0  1.375 0.1486128048780488 0  1.5125 0 0  1.7875 0 0  1.5125 0.41 0  0.8250000000000001 0.2613871951219511 0  0.9625000000000001 0.41 0  0.9625000000000001 0 0  0.6875 0.41 0  0.6875 0 0  0.1375 0 0  0.1375 0.41 0  1.2375 0 0  1.1 0.1486128048780487 0  1.2375 0.41 0  1.65 0.1486128048780487 0  1.126715909090909 0.2793064024390244 0  1.676715909090909 0.2793064024390244 0  0.8517159090909092 0.1306935975609756 0  1.348284090909091 0.2793064024390244 0  0.34375 0.3032389320646208 0  1.894702181800738 0.1282910975492754 0  2.092797818199262 0.1282910975492754 0  1.85625 0.3075 0  0.61875 0.3075 0  0.61875 0.1025 0  0.3648540804333487 0.1240075933101478 0  0 0.3075 0  0 0.1025 0  2.099172119769978 0.25625 0  0.48125 0.09238439620688085 0  0.5781001037344399 0.2059284232365146 0  0.48125 0.3196743479159776 0  0.7265881057911006 0.3055240343720796 0  1.99375 0.08395950269330846 0  1.459960956013612 0.3075 0  1.569025960719943 0.2986889805672169 0  0.75625 0.08213100772579164 0  1.03125 0.3278689922742084 0  0.923871252904788 0.3078247185783941 0  1.959375 0.3126371951219512 0  1.749222215368287 0.1025 0  1.275777784631713 0.1025 0  2.2 0.1025 0  1.225938124459196 0.3075 0  1.550777784631713 0.1025 0  1.000777784631713 0.1025 0  1.44375 0.07430640243902442 0  1.16875 0.07430640243902437 0  1.899250267340833 0.2229966846119207 0  0.1020898364287272 0.3140258291809757 0  1.766482954545455 0.2934032012195123 0  0.3405058858996321 0.2119987970531874 0  0.7710785630958338 0.1710968191298857 0  1.046078563095834 0.2389031808701144 0  0.2 0.3400647632937836 0  1.421109702350723 0.2261157654379721 0  0.2800464974185557 0.08982544815605742 0  0.098916018031319 0.09171660955420841 0  2.13125 0 0  2.118919042110979 0.3422084711244843 0  1.30625 0.41 0  0.89375 0 0  1.597888256393107 0.2173787389261347 0  0.20625 0 0  1.829299675393195 0.07400700849299596 0  1.71875 0.41 0  1.16875 0.41 0  2.038220665644273 0.332420740103091 0  0.34375 0 0  0.417496017710808 0.2696595573092803 0  0.2 0.07687845740457822 0  0.9295982307099278 0.1343158415898188 0  0.07390688010811153 0.1697064032433452 0  0.5238366813727013 0.2578302467013575 0  0.05452951551825875 0.25625 0  0.5229630068078351 0.1548816096928243 0  1.452769549894695 0.1548122580621249 0  1.369219062229598 0.07430640243902442 0  1.30625 0 0  0.8504409521244898 0.3356935975609756 0  0.8821881244591965 0.205 0  1.720943423819132 0.1714577452753128 0  1.157188124459196 0.205 0  1.094219062229598 0.07430640243902437 0  1.03125 0 0  1.304056576180868 0.1714577452753128 0  1.67579304192913 0.07430640243902437 0  0.2751941921308361 0.3346083473122598 0  1.209670467133757 0.1362100266964769 0  1.025335513626278 0.1700681449722324 0  0.7562500000000001 0.41 0  1.58125 0 0  0.7567170593862014 0.2409196493502535 0  0.6926714215682891 0.1272249611432207 0  0.4139715849905988 0.3397932387114203 0  0.9840787304190477 0.2717749043358119 0  0.06875000000000001 0.41 0  0 0.35875 0  0.9281250000000001 0.06276726142697993 0  0.5507396469029935 0.3219409231578227 0  0.5504468037989405 0.09136885600634273 0  1.58125 0.41 0  1.631724228912893 0.3381867502687533 0  1.825608881788174 0.14499488549201 0  1.85625 0 0  1.44375 0 0  1.44375 0.41 0  1.85625 0.41 0  2.13125 0.41 0  0.7562500000000001 0 0  0.89375 0.41 0  0.4812500000000001 0 0  0.34375 0.41 0  0.4812500000000001 0.41 0  0.20625 0.41 0  0.06875000000000001 0 0  1.16875 0 0  0.61875 0 0  0.61875 0.41 0  1.03125 0.41 0  1.71875 0 0  1.99375 0 0  1.99375 0.41 0  1.340625 0.3489494290853124 0  1.134375 0.3489494290853123 0  1.700180620188976 0.3438659752031281 0  2.135782184673599 0.07126652247502523 0  1.668441847249787 0.2129203728327609 0  1.295782514339747 0.2378437748815763 0  0.8233075729931248 0.06842334294821524 0  1.409375 0.3520314716057996 0  0.403505597322782 0.182067236678212 0  0.378125 0.05794951541303489 0  0.3043468223249023 0.1518321115979534 0  2.129248544730567 0.1906135162504124 0  2.060771381434487 0.1989445750470348 0  2.013252586573865 0.1496169464686054 0  1.942766402200229 0.1734448904596831 0  1.895522487186454 0.06076163953489683 0  2.069553871656643 0.06605731020975725 0  1.274680914880868 0.3520219391081363 0  1.614713220494657 0.09473434380863296 0  0.7899021319497519 0.3149123934144827 0  0.69518737419149 0.0634051089053758 0  0.2971740475496061 0.2592172353407536 0  1.72990325744076 0.2380068107952482 0  1.356580098625191 0.2120393231351682 0  2.034370752044885 0.2668681600792073 0  1.51768709249349 0.3426260931494756 0  1.561883724969884 0.1650446847858835 0  1.197344062229598 0.2523725417393646 0  1.804085235518364 0.3468178408964637 0  1.817887819205233 0.2589243285818559 0  1.905897727272727 0.3485060975609756 0  0.6719798073392919 0.2688965171178177 0  0 0.05125 0  0.653125 0.35875 0  0.6396896119294488 0.1627615407790282 0  0.4274150154087412 0.1242548552168279 0  1.192836486056382 0.3562350748565544 0  0.8279124365364005 0.183856489168822 0  1.097485222388854 0.2083571153401724 0  1.28257088594801 0.2944411014911587 0  1.474860187679412 0.2504218616229368 0  1.406767003493824 0.2829282258560709 0  0.446875 0.04619219810344041 0  0.515625 0.04585361801037557 0  0.592043440706648 0.05125 0  1.845656689180403 0.1998310418452388 0  2.144958525570388 0.2909790873294231 0  0.6171090763650112 0.2492366900333857 0  2.2 0.15375 0  0.5145586920831158 0.3648371739579888 0  1.57794966442982 0.3540357145964566 0  0.721875 0.3633107922168974 0  0.0496154796471391 0.333125 0  0.5843750000000001 0.3662560860076676 0  0.5810878747760798 0.1474002776121195 0  1.508991196088596 0.1421783375065625 0  0.8840670607017558 0.2640994375393898 0  0.09776612425612034 0.2204896805326566 0  1.50436820029908 0.06143401634903343 0  1.223857000523521 0.0823554862453532 0  1.153316824384777 0.1289850171317837 0  2.148922302309752 0.1258841779285271 0  0.309375 0.04312325590431198 0  1.621993280276081 0.2841214267927899 0  1.550118654119087 0.2461998729100966 0  1.327182649291491 0.1216967252533594 0  1.051977450479407 0.1221382572915816 0  1.753125 0.04556020050186112 0  1.271875 0.04556020050186116 0  0.9816084133102366 0.05126138213476004 0  1.039051841454368 0.0572224914831029 0  0.9719230514536006 0.3480477870845102 0  1.94956388244759 0.1180512551534177 0  1.949997712993411 0.04965831614304109 0  1.771961817615021 0.1530278789497521 0  1.909246823951428 0.2812757146784527 0  0.2459536687882397 0.04668633953831142 0  1.948575539857022 0.2445328248721197 0  1.697271520964565 0.1233917627620729 0  0.7964897648514618 0.1211426571931604 0  1.065625 0.3689344961371042 0  1.085849084308977 0.3170853572226867 0  0.4702981435440001 0.260434880697798 0  1.577403511714593 0.05463601888079143 0  0.05622663515370135 0.05493816910862376 0  0.3267207591099919 0.3566194660323104 0  0.9003051618565143 0.3564049499960621 0  1.751571320346033 0.3651102912045228 0  0.1583785085108421 0.2994699345738728 0  0.1455283439499995 0.3542795598723423 0  2.2 0.35875 0  0.2347662494194072 0.298325008655211 0  0.1527284455616188 0.1065771775690181 0  0.1382139529076665 0.05427454456341477 0  0.8749341636311069 0.05110114999892954 0  0.643661668713109 0.05693499781019222 0  1.466879772203159 0.3611261772912453 0  1.990280163552011 0.3564754268533217 0  1.17471064520912 0.2990917256188288 0  0.5202693090594349 0.206382495511728 0  0 0.25625 0  2.2 0.25625 0  2.2 0.05125 0  0 0.15375 0  1.853978576207987 0.35875 0  0.9787513713939683 0.1487523696999336 0  0.240625 0.3722153812029779 0  1.515638456102889 0.2882700110184686 0  0.09048297387599738 0.3637717362208066 0  2.150453692751374 0.2387066338105111 0  1.323782677156475 0.04897634338873398 0  0.8074131292871642 0.3624701995505916 0  1.409375 0.03715320121951221 0  1.406484531114799 0.1087852750766809 0  1.134375 0.03715320121951218 0  1.627401732573545 0.04552157221025036 0  0.1170173172005315 0.1427610859166811 0  2.045405893604797 0.1105340662939892 0  1.255408269734577 0.1577307500159216 0  2.028125 0.03707597992059326 0  0.4743610090857199 0.1421513964721819 0  0.9354010469015898 0.250631300585664 0  0.04420832937638274 0.128125 0  0.8922386349349938 0.0992956419364831 0  0.1197849154434487 0.2663398672460083 0  1.248258025468107 0.2565907092181813 0  0.3746885856929528 0.370723531618974 0  1.203125 0.0366132337404304 0  0.5724622277005015 0.2751253816079333 0  0.3365425205162783 0.08395777655057959 0  2.072662025974815 0.2975086504196739 0  0.4581080832182547 0.3648371739579888 0  0.3874522734668214 0.2295447548840689 0  0.7827853612484443 0.04106550386289586 0  1.887722846421017 0.1760882698830035 0  1.472640588990488 0.1118278026240017 0  1.865937103925594 0.2604137786483804 0  1.463913572748262 0.2030442564990043 0  1.376426316059077 0.3186741374914345 0  0.6641993820150034 0.3141688596240831 0  0.2943117490824315 0.2130987422685822 0  0.3478153998082709 0.1666571081082676 0  0.3427990510599805 0.2575950027870776 0  0.7997118993855807 0.2216171933356366 0  
[...]
<PointData  Vectors="f_31"> 
<DataArray  type="Float64"  Name="f_31"  NumberOfComponents="3" format="ascii">6.1822693150067676e-07 -1.0661165354651668e-06 0.0000000000000000e+00  -4.2154532391881447e-06 1.7798990910049249e-06 0.0000000000000000e+00  4.1334782243502287e-06 4.2066748124924437e-08 0.0000000000000000e+00  -1.8270841585221325e-05 1.3368482659275289e-07 0.0000000000000000e+00  6.0196927411431021e-05 -4.7024518294020999e-05 0.0000000000000000e+00  5.0793981355817680e-05 -2.1916411019444925e-05 0.0000000000000000e+00  8.0388794308204311e-05 1.2418184715524430e-05 0.0000000000000000e+00  3.0064514912043602e-05 -6.1562508183843047e-06 0.0000000000000000e+00  -9.4952065024082007e-06 -1.9122021474628114e-05 0.0000000000000000e+00  -1.0025044816818401e-05 5.0267305682271967e-06 0.0000000000000000e+00  3.0953324300137905e-06 7.1813127983996439e-06 0.0000000000000000e+00  -3.8358945208823775e-06 -5.6992187665997223e-06 0.0000000000000000e+00  1.0384197792848182e-05 8.7598397056087083e-06 0.0000000000000000e+00  2.5897975865241913e-05 8.2143468337768438e-06 0.0000000000000000e+00  -3.4341690325743430e-06 -4.8737728426287835e-08 0.0000000000000000e+00  -8.5762312750469589e-07 -5.7294498602741958e-08 0.0000000000000000e+00  1.5000038633688852e+00 1.3018572886351428e-06 0.0000000000000000e+00  -9.1780700648850182e-06 2.0737158980854240e-09 0.0000000000000000e+00  1.7280123639097171e-06 2.8472781658175893e-08 0.0000000000000000e+00  9.9601623955230742e-07 3.0953325132257029e-06 0.0000000000000000e+00  -1.1575745384535151e-05 -2.2932519219120225e-06 0.0000000000000000e+00  -1.9440699914324703e-06 -5.0821224095300301e-07 0.0000000000000000e+00  -1.7446621172088886e-06 1.7002956382083697e-07 0.0000000000000000e+00  3.2693632911367284e-07 1.0995599775866482e-07 0.0000000000000000e+00  -6.2580942242535827e-06 -2.1530757345192103e-07 0.0000000000000000e+00  -4.6291463807659333e-06 -5.1468317379492068e-08 0.0000000000000000e+00  -1.5236732051874497e-06 -2.4017213598960466e-07 0.0000000000000000e+00  -3.9862228159978289e-06 1.2176510249004009e-07 0.0000000000000000e+00  -3.5595701498578688e-06 -3.0842605196826333e-08 0.0000000000000000e+00  1.0741721896997654e+00 2.9355782317307644e-05 0.0000000000000000e+00  1.0740931091838271e+00 2.4310077767639892e-05 0.0000000000000000e+00  1.0731659980996180e+00 -1.3159615483627264e-03 0.0000000000000000e+00  1.0740479332723885e+00 -1.1074403083676880e-04 0.0000000000000000e+00  1.0739353671298058e+00 8.3253389316820576e-06 0.0000000000000000e+00  1.0747005938935614e+00 1.0384623031953088e-04 0.0000000000000000e+00  1.0270686308232206e+00 -1.1838868254749762e-02 0.0000000000000000e+00  1.0740278039678344e+00 1.1618502229709084e-05 0.0000000000000000e+00  3.7902053611634342e-07 -2.0449857032189101e-07 0.0000000000000000e+00  -9.3831123870906513e-07 2.1901076003581687e-07 0.0000000000000000e+00  1.0739846853344166e+00 -7.5551151516267136e-04 0.0000000000000000e+00  -8.8181445629957118e-06 3.7414683727449110e-08 0.0000000000000000e+00  -3.9484464997752465e-06 6.7610172563348025e-07 0.0000000000000000e+00  -7.8001449716786503e-06 -6.7603018329001572e-08 0.0000000000000000e+00  1.0741214745620045e+00 3.6063252491679573e-05 0.0000000000000000e+00  -2.0272515673484679e-06 1.3481728812197149e-08 0.0000000000000000e+00  -5.9932330137878489e-06 3.1284802653321030e-07 0.0000000000000000e+00  -2.8730226062563286e-07 7.6652509373048038e-08 0.0000000000000000e+00  1.0742011561921150e+00 -4.1663187414480465e-04 0.0000000000000000e+00  -2.7572081353796969e-06 5.3388418767139459e-09 0.0000000000000000e+00  1.2965903464273763e-06 -9.2556206601014204e-08 0.0000000000000000e+00  2.6799004721894275e-06 9.0173373723430683e-08 0.0000000000000000e+00  -8.5738267895576827e-06 1.0507313440176640e-07 0.0000000000000000e+00  2.8935239295055003e-05 -1.3907997257826185e-05 0.0000000000000000e+00  2.9519869836082387e-05 4.1846730250475472e-06 0.0000000000000000e+00  3.8572493067277284e-08 1.0647152376205343e-07 0.0000000000000000e+00  1.0739034059109773e+00 -4.6828002576608468e-05 0.0000000000000000e+00  -1.5192542329938932e-06 -5.7790881306352782e-08 0.0000000000000000e+00  1.0740976816239849e+00 -5.4340267556688195e-05 0.0000000000000000e+00  1.0740045022059577e+00 -2.5712907834009648e-05 0.0000000000000000e+00  1.0739705693798973e+00 -8.1292764044761887e-05 0.0000000000000000e+00  1.0739119603073368e+00 -1.6244843307179426e-04 0.0000000000000000e+00  1.0741910735681131e+00 1.0068140150721191e-04 0.0000000000000000e+00  1.2779278543725765e+00 -2.4672196075154157e-01 0.0000000000000000e+00  1.0740084573496111e+00 -5.1241206228450549e-05 0.0000000000000000e+00  1.0741640935427270e+00 1.7313244945844363e-04 0.0000000000000000e+00  1.0739526923579883e+00 -2.0722653214335411e-05 0.0000000000000000e+00  1.0767145447294555e+00 -4.1826271997068547e-03 0.0000000000000000e+00  1.0728252120072792e+00 1.0757512971086864e-03 0.0000000000000000e+00  1.1164709751872441e+00 2.6884141891811597e-01 0.0000000000000000e+00  1.1249980574835292e+00 2.1296799367783701e-06 0.0000000000000000e+00  1.1249893544795255e+00 -2.9293504696165986e-07 0.0000000000000000e+00  1.0740798798286824e+00 3.3038978165572735e-05 0.0000000000000000e+00  1.0848076505396769e+00 2.7376816962748358e-02 0.0000000000000000e+00  1.0678722999665511e+00 -3.5219152119404023e-03 0.0000000000000000e+00  1.0988646363361443e+00 -3.3005406351261493e-02 0.0000000000000000e+00  1.0747379621790796e+00 -9.6068104753528919e-04 0.0000000000000000e+00  1.0739513069690945e+00 2.0514135183564126e-04 0.0000000000000000e+00  1.0738071268430420e+00 9.8734485374852717e-05 0.0000000000000000e+00  1.0738195791591567e+00 -9.2866626081240601e-06 0.0000000000000000e+00  1.0734912350746755e+00 -4.2179499434771600e-04 0.0000000000000000e+00  1.0732089217270613e+00 4.8219022737689646e-04 0.0000000000000000e+00  1.0741172954117204e+00 -9.7238053142760029e-05 0.0000000000000000e+00  1.0738553512618649e+00 1.1994952197008300e-04 0.0000000000000000e+00  1.0739098818224968e+00 -4.4447185409479731e-05 0.0000000000000000e+00  1.0741092584014225e+00 1.3941909711134471e-04 0.0000000000000000e+00  1.0740852591835777e+00 8.3674343204416621e-04 0.0000000000000000e+00  1.0740120583123856e+00 -2.2626950926964829e-04 0.0000000000000000e+00  1.0740103625973885e+00 -7.7575583982764370e-06 0.0000000000000000e+00  1.0740018063172971e+00 -8.9539387584462650e-05 0.0000000000000000e+00  1.0736097408528174e+00 -3.0583319007528140e-04 0.0000000000000000e+00  1.0738721545920500e+00 7.7805803924464791e-05 0.0000000000000000e+00  1.0739962463921264e+00 1.6582052181281013e-05 0.0000000000000000e+00  1.1975461080457888e+00 2.3206753274734040e-01 0.0000000000000000e+00  1.0740866237810094e+00 5.7765763341774617e-05 0.0000000000000000e+00  3.1771088170274780e-01 -2.4414616606269587e-01 0.0000000000000000e+00  1.0737106316784848e+00 -5.1657731995848207e-04 0.0000000000000000e+00  1.0740524673288538e+00 -3.2994690282525797e-05 0.0000000000000000e+00  1.2403018765794691e+00 3.5734904904939463e-01 0.0000000000000000e+00  1.0740402133926654e+00 4.2168155949461752e-05 0.0000000000000000e+00  1.5415448467591404e+00 1.1724804325959000e-01 0.0000000000000000e+00  1.1592191984839937e+00 -2.3175855126380221e-01 0.0000000000000000e+00  -4.9070673122538083e-07 -1.0681922029886756e-07 0.0000000000000000e+00  1.0721444533454116e+00 5.8731407787622697e-04 0.0000000000000000e+00  -3.2714981444434497e-06 9.9205896846033609e-08 0.0000000000000000e+00  -8.1987039662680014e-06 -1.9297985261099900e-07 0.0000000000000000e+00  1.0741488800905710e+00 -4.8664516565463121e-05 0.0000000000000000e+00  -1.6848716308764201e-05 3.5518970662483619e-06 0.0000000000000000e+00  1.0736150633178934e+00 -1.9892233167233467e-04 0.0000000000000000e+00  -5.2869103034055949e-06 2.6385589082985830e-08 0.0000000000000000e+00  -2.6604208116892411e-06 -8.1518678576054640e-08 0.0000000000000000e+00  1.0741386607694448e+00 -7.7066236549773161e-05 0.0000000000000000e+00  1.4708002702688397e-06 6.5259041711962622e-07 0.0000000000000000e+00  1.0548579161998437e+00 -1.2258340593371440e-01 0.0000000000000000e+00  1.4518987286705061e+00 -3.2822800686811571e-01 0.0000000000000000e+00  1.0739942202463377e+00 -1.4592269145852462e-04 0.0000000000000000e+00  1.3399296317670317e+00 -1.0988973670376688e-01 0.0000000000000000e+00  1.0674258351953643e+00 -1.8623013366657469e-02 0.0000000000000000e+00  1.3737712686215791e+00 1.1989862858970708e-01 0.0000000000000000e+00  1.0613852461033511e+00 8.7617476460149554e-03 0.0000000000000000e+00  1.0739556428073818e+00 2.5458670110846067e-05 0.0000000000000000e+00  1.0730935569174984e+00 -4.6600394032820212e-04 0.0000000000000000e+00  -5.9242602377230737e-07 1.5777838515962335e-07 0.0000000000000000e+00  1.0740009502591172e+00 -5.4804040341565333e-05 0.0000000000000000e+00  1.0740689186080354e+00 -1.9973698653269985e-04 0.0000000000000000e+00  1.0740320534026164e+00 3.2481293392432151e-05 0.0000000000000000e+00  1.0738729022580384e+00 -5.7081036978024796e-06 0.0000000000000000e+00  1.0736668623795143e+00 -2.4952359141005404e-04 0.0000000000000000e+00  -4.5301333199946474e-06 -1.8138507393635332e-07 0.0000000000000000e+00  1.0740706195810676e+00 5.8578234284590467e-05 0.0000000000000000e+00  1.0730142966299536e+00 1.1069707029515684e-04 0.0000000000000000e+00  1.4522725069742106e+00 -5.2341219153114850e-03 0.0000000000000000e+00  1.0740019496612625e+00 4.0672558252266137e-05 0.0000000000000000e+00  1.0739689794393767e+00 -8.8447427137327273e-05 0.0000000000000000e+00  -1.3068868236989046e-06 1.3894993895377757e-08 0.0000000000000000e+00  -1.6151381246362298e-05 1.5184802576647568e-07 0.0000000000000000e+00  1.0741248785681015e+00 -8.5809756054274508e-04 0.0000000000000000e+00  1.0733552792036647e+00 -2.7460371598735941e-04 0.0000000000000000e+00  1.1685688283397817e+00 -6.7574551559491686e-02 0.0000000000000000e+00  1.0741475941479095e+00 -5.2515492922069957e-05 0.0000000000000000e+00  2.2874307758876954e-06 5.9846266369604048e-06 0.0000000000000000e+00  6.5624960948298439e-01 8.4341596732794125e-07 0.0000000000000000e+00  1.0724072982275283e+00 -1.5016350252519475e-04 0.0000000000000000e+00  1.0827622993576562e+00 -1.0782254835764662e-02 0.0000000000000000e+00  1.0756141463564561e+00 6.4899922684126254e-03 0.0000000000000000e+00  -6.3966810496084774e-06 4.1090003541543226e-07 0.0000000000000000e+00  1.0723949485762130e+00 8.6959633848624894e-04 0.0000000000000000e+00  1.0740380258097373e+00 -2.6745388903676988e-05 0.0000000000000000e+00  -5.0694216645578762e-06 2.9022283221639327e-07 0.0000000000000000e+00  -1.2625789654124650e-05 1.6699995702555504e-07 0.0000000000000000e+00  -7.7293758590881633e-06 -2.9029390503312695e-08 0.0000000000000000e+00  6.6267620860912819e-07 1.1331310717762786e-08 0.0000000000000000e+00  -4.7030769661896121e-06 -2.2502291766424205e-08 0.0000000000000000e+00  -1.0946450167661204e-06 -6.4271412169122455e-08 0.0000000000000000e+00  -1.2205092301396014e-06 -2.2418236990272915e-07 0.0000000000000000e+00  -1.3864460209805521e-06 -6.0894959931831650e-07 0.0000000000000000e+00  5.6266079904316107e-06 -2.0105046435702248e-06 0.0000000000000000e+00  -1.3641200754016642e-05 3.6345033964854925e-07 0.0000000000000000e+00  -1.8743648814497086e-05 -5.4099684980090181e-06 0.0000000000000000e+00  1.1602484818253708e-05 -9.1052936923425455e-06 0.0000000000000000e+00  -4.5024631586789359e-08 -1.4410471009306029e-08 0.0000000000000000e+00  -8.1035433026779374e-06 -7.6795313103217017e-08 0.0000000000000000e+00  -5.2274700611025597e-06 1.7715684154094402e-07 0.0000000000000000e+00  -1.0586269086141464e-06 2.2706530854245428e-09 0.0000000000000000e+00  -8.8223926277982998e-06 -1.3644687472629499e-07 0.0000000000000000e+00  -2.5569510396206424e-06 -7.9241179046368214e-08 0.0000000000000000e+00  -2.4259848246289882e-06 -2.8315478361023724e-07 0.0000000000000000e+00  1.0696797673710401e+00 9.8773682357670652e-04 0.0000000000000000e+00  1.0726638744479517e+00 1.2490248620234038e-04 0.0000000000000000e+00  1.0730468377180216e+00 -5.8943323891993851e-04 0.0000000000000000e+00  1.0727489262346739e+00 2.8812511912732149e-05 0.0000000000000000e+00  1.0740747285083652e+00 -4.5612091929929923e-07 0.0000000000000000e+00  1.0740604854173774e+00 -6.1502040194614028e-06 0.0000000000000000e+00  1.0719770713370391e+00 -5.5636382620239051e-04 0.0000000000000000e+00  1.0708233211753639e+00 9.6066330859379749e-04 0.0000000000000000e+00  9.1427780819444604e-01 5.2673975452731538e-02 0.0000000000000000e+00  1.2238860664589077e+00 8.2654830507223512e-02 0.0000000000000000e+00  9.6796896460427639e-01 5.2247253014698825e-01 0.0000000000000000e+00  1.0742312345046596e+00 1.6193167473334722e-04 0.0000000000000000e+00  1.0741885202849752e+00 8.8195599640877593e-05 0.0000000000000000e+00  1.0740889562903384e+00 9.4071952699285809e-05 0.0000000000000000e+00  1.0739917518402240e+00 1.0175815144184843e-05 0.0000000000000000e+00  1.0708438301649124e+00 -1.3389802869464038e-04 0.0000000000000000e+00  1.0726577633604342e+00 -1.2835931177130632e-05 0.0000000000000000e+00  1.0724741682458776e+00 -9.4648654653317262e-06 0.0000000000000000e+00  1.0737363381250651e+00 -2.1807369941361339e-04 0.0000000000000000e+00  1.0744239071914703e+00 -4.3251777605468795e-04 0.0000000000000000e+00  1.0717888615641333e+00 -1.3041464881325733e-04 0.0000000000000000e+00  1.3012082586289717e+00 -4.6276536964057513e-01 0.0000000000000000e+00  1.0740870667938642e+00 -1.7185093800093111e-07 0.0000000000000000e+00  1.0740229074662908e+00 2.8634917883571647e-05 0.0000000000000000e+00  1.0741581125776212e+00 1.2079305379072909e-06 0.0000000000000000e+00  1.0721267226195170e+00 -2.8920945440971599e-05 0.0000000000000000e+00  1.0740781763576219e+00 -3.9166403209868506e-05 0.0000000000000000e+00  1.0739699815940260e+00 -3.0168785110862810e-05 0.0000000000000000e+00  1.0721183895192536e+00 3.3445885012103860e-04 0.0000000000000000e+00  1.0740753804086123e+00 2.3857319460271718e-05 0.0000000000000000e+00  1.0727980742844869e+00 4.5302682931994657e-04 0.0000000000000000e+00  1.0744177339019982e+00 -2.2362161945363732e-03 0.0000000000000000e+00  6.5624734326760426e-01 1.0729073653962021e-07 0.0000000000000000e+00  1.0711639200177567e+00 1.5703428951563254e-04 0.0000000000000000e+00  1.0720197315555240e+00 -4.6184402005639799e-04 0.0000000000000000e+00  1.0637464868758240e+00 8.7846562227627267e-02 0.0000000000000000e+00  1.0691341919545738e+00 1.2467372415987707e-03 0.0000000000000000e+00  1.0738151637992885e+00 -3.1800792019115605e-04 0.0000000000000000e+00  1.0738983765831025e+00 -4.6903467954561495e-05 0.0000000000000000e+00  1.0742953929121315e+00 -1.0579970318806299e-04 0.0000000000000000e+00  1.0739372842981338e+00 3.2468511732083596e-05 0.0000000000000000e+00  1.0740029328446128e+00 1.0836579646266645e-04 0.0000000000000000e+00  1.1070396337077544e+00 1.6274173181337118e-02 0.0000000000000000e+00  1.0719426547430113e+00 2.1361445481198663e-03 0.0000000000000000e+00  1.0678316417679499e+00 -6.2342389222991073e-04 0.0000000000000000e+00  1.0740569077904871e+00 -1.3234386319012603e-05 0.0000000000000000e+00  1.0739690101792840e+00 -1.4823276371512102e-04 0.0000000000000000e+00  1.0728735303010737e+00 -4.3891975329765744e-03 0.0000000000000000e+00  1.0744553169692019e+00 5.5525247085746554e-04 0.0000000000000000e+00  1.0822103056755694e+00 -5.6427449569084872e-03 0.0000000000000000e+00  1.0716426004507462e+00 -3.6296711955474415e-04 0.0000000000000000e+00  1.0613478612557354e+00 5.7485825581284045e-04 0.0000000000000000e+00  9.4293454358007800e-01 8.3475012746260305e-02 0.0000000000000000e+00  1.0654646842995248e+00 -1.7717866945305811e-03 0.0000000000000000e+00  1.0697871956477076e+00 2.1097218578478307e-03 0.0000000000000000e+00  1.0739977256508040e+00 4.4120953831319258e-05 0.0000000000000000e+00  1.0740915624075877e+00 -2.0269731715341226e-04 0.0000000000000000e+00  1.2259732880567442e+00 1.5501441095786977e-01 0.0000000000000000e+00  1.0731044361526474e+00 3.3714379440887677e-04 0.0000000000000000e+00  1.0737263704695186e+00 3.4371142539220505e-05 0.0000000000000000e+00  1.0740397635235823e+00 2.3916242500212425e-05 0.0000000000000000e+00  1.0741881430752311e+00 3.3073720973834605e-04 0.0000000000000000e+00  1.3491282202779487e+00 8.4864971557948601e-02 0.0000000000000000e+00  1.0738966270000851e+00 -7.7720403939064859e-06 0.0000000000000000e+00  1.0739534902542576e+00 -1.4539785114500896e-05 0.0000000000000000e+00  1.0742087723493516e+00 1.1032958048828130e-04 0.0000000000000000e+00  1.0739426906419001e+00 -9.0552776662015147e-05 0.0000000000000000e+00  1.0611280151512559e+00 2.1584020157884701e-04 0.0000000000000000e+00  1.0596955459781641e+00 -2.0720829207723874e-04 0.0000000000000000e+00  1.0697240202226141e+00 1.1125576522913587e-04 0.0000000000000000e+00  1.0720013657385459e+00 4.3503706306991830e-05 0.0000000000000000e+00  1.0728197196978255e+00 -1.0674478652359988e-04 0.0000000000000000e+00  1.0740193351130372e+00 4.3690948397517543e-06 0.0000000000000000e+00  1.0612904543190738e+00 -9.8605013332119375e-04 0.0000000000000000e+00  1.0741428710667746e+00 6.1343969844776946e-06 0.0000000000000000e+00  1.0741570337201118e+00 2.2356899407668904e-05 0.0000000000000000e+00  1.3362408441309079e+00 -6.6461773636389568e-02 0.0000000000000000e+00  1.0740651751563166e+00 -2.0016272345092363e-05 0.0000000000000000e+00  1.0740931355508139e+00 1.7079945153424137e-05 0.0000000000000000e+00  1.0736949379107423e+00 -2.8629514228093199e-04 0.0000000000000000e+00  1.0503692870689634e+00 1.1376165265684125e-04 0.0000000000000000e+00  1.0739297637598286e+00 -9.3730591696351365e-05 0.0000000000000000e+00  1.0573847799476650e+00 -4.5778907040205687e-02 0.0000000000000000e+00  1.0693580105490723e+00 -6.4223259958321648e-04 0.0000000000000000e+00  7.4386401564064208e-01 -6.0081303649775680e-02 0.0000000000000000e+00  1.3305424714280072e+00 -8.9360972000857394e-02 0.0000000000000000e+00  1.0665374380258394e+00 1.0531606820711849e-03 0.0000000000000000e+00  1.0593308802432093e+00 3.1277936123818613e-04 0.0000000000000000e+00  1.5412755845478918e+00 4.5690916941396820e-01 0.0000000000000000e+00  9.5714834577020524e-01 2.0613220957730369e-01 0.0000000000000000e+00  1.0657554864710586e+00 -3.2967505584701893e-04 0.0000000000000000e+00  1.8054535593117544e+00 2.3164564255091324e-01 0.0000000000000000e+00  1.4971411561064487e+00 -5.0273167609118619e-01 0.0000000000000000e+00  9.5524910010457875e-01 -2.0002533886284518e-01 0.0000000000000000e+00  1.0644079157330530e+00 -2.0125746949078486e-04 0.0000000000000000e+00  1.0672296097451035e+00 -1.5345826651960576e-04 0.0000000000000000e+00  1.0647857717954370e+00 -2.0456941345080841e-04 0.0000000000000000e+00  1.0694108911107290e+00 -5.1226696858063219e-04 0.0000000000000000e+00  1.0740041731063057e+00 1.1216889425602395e-05 0.0000000000000000e+00  1.0563223363352698e+00 -6.2931086458301580e-03 0.0000000000000000e+00  1.4062432941247995e+00 1.6356605853538479e-06 0.0000000000000000e+00  1.0745760109946576e+00 -2.4161969472118178e-04 0.0000000000000000e+00  1.0668218287725366e+00 5.9624414493539746e-04 0.0000000000000000e+00  1.4062422702257695e+00 3.8939898597932864e-07 0.0000000000000000e+00  1.0690001789074015e+00 -6.6050246958076857e-04 0.0000000000000000e+00  1.0738932782261226e+00 -1.2565019319741205e-04 0.0000000000000000e+00  1.2377196597716849e+00 6.5281671956257614e-02 0.0000000000000000e+00  1.0738583908695336e+00 -1.3565308538526384e-05 0.0000000000000000e+00  7.2138902161763441e-01 6.0499153941670006e-02 0.0000000000000000e+00  1.0742619710439627e+00 -5.6129012379070632e-06 0.0000000000000000e+00  1.0659956826728443e+00 5.6997559842984953e-04 0.0000000000000000e+00  1.0626695480482069e+00 8.5821859600261911e-04 0.0000000000000000e+00  1.0351072177778315e+00 -3.6829844900930850e-04 0.0000000000000000e+00  1.0740711340077449e+00 -1.2389765690747691e-04 0.0000000000000000e+00  1.0364834214651890e+00 4.6508836236195062e-04 0.0000000000000000e+00  1.0603743709746394e+00 -