<?xml version="1.0"?>
<VTKFile type="UnstructuredGrid"  version="0.1"  >
<UnstructuredGrid>
<Piece  NumberOfPoints="2446" NumberOfCells="4585">
<Points>
<DataArray  type="Float64"  NumberOfComponents="3"  format="ascii">0 0.41 0  0 0 0  2.2 0 0  2.2 0.41 0  0.2404508497187474 0.2293892626146237 0  0.25 0.2 0  0.2404508497187474 0.1706107373853764 0  0.2154508497187474 0.1524471741852423 0  0.1845491502812526 0.1524471741852423 0  0.1595491502812526 0.1706107373853764 0  0.15 0.2 0  0.1595491502812526 0.2293892626146237 0  0.1845491502812527 0.2475528258147577 0  0.2154508497187474 0.2475528258147577 0  1.1 0 0  1.1 0.41 0  0 0.205 0  0.55 0 0  0.55 0.41 0  0.275 0 0  0.275 0.41 0  1.65 0.41 0  1.65 0 0  0.8250000000000001 0.41 0  0.8250000000000001 0 0  1.375 0 0  1.375 0.41 0  1.925 0 0  1.925 0.41 0  1.5125 0.205 0  1.7875 0.205 0  0.6875 0.205 0  0.9625000000000001 0.205 0  1.2375 0.205 0  2.2 0.205 0  0.4687002074688797 0.2068568464730291 0  1.99375 0.2152743902439024 0  2.0625 0 0  2.0625 0.41 0  2.2 0.3075 0  0.4125 0 0  0.4125 0.41 0  1.7875 0.41 0  1.375 0.1486128048780488 0  1.5125 0 0  1.7875 0 0  1.5125 0.41 0  0.8250000000000001 0.2613871951219511 0  0.9625000000000001 0.41 0  0.9625000000000001 0 0  0.6875 0.41 0  0.6875 0 0  0.1375 0 0  0.1375 0.41 0  1.2375 0 0  1.1 0.1486128048780487 0  1.2375 0.41 0  1.65 0.1486128048780487 0  1.126715909090909 0.2793064024390244 0  1.676715909090909 0.2793064024390244 0  0.8517159090909092 0.1306935975609756 0  1.348284090909091 0.2793064024390244 0  0.34375 0.3032389320646208 0  1.894702181800738 0.1282910975492754 0  2.092797818199262 0.1282910975492754 0  1.85625 0.3075 0  0.61875 0.3075 0  0.61875 0.1025 0  0.3648540804333487 0.1240075933101478 0  0 0.3075 0  0 0.1025 0  2.099172119769978 0.25625 0  0.48125 0.09238439620688085 0  0.5781001037344399 0.2059284232365146 0  0.48125 0.3196743479159776 0  0.7265881057911006 0.3055240343720796 0  1.99375 0.08395950269330846 0  1.459960956013612 0.3075 0  1.569025960719943 0.2986889805672169 0  0.75625 0.08213100772579164 0  1.03125 0.3278689922742084 0  0.923871252904788 0.3078247185783941 0  1.959375 0.3126371951219512 0  1.749222215368287 0.1025 0  1.275777784631713 0.1025 0  2.2 0.1025 0  1.225938124459196 0.3075 0  1.550777784631713 0.1025 0  1.000777784631713 0.1025 0  1.44375 0.07430640243902442 0  1.16875 0.07430640243902437 0  1.899250267340833 0.2229966846119207 0  0.1020898364287272 0.3140258291809757 0  1.766482954545455 0.2934032012195123 0  0.3405058858996321 0.2119987970531874 0  0.7710785630958338 0.1710968191298857 0  1.046078563095834 0.2389031808701144 0  0.2 0.3400647632937836 0  1.421109702350723 0.2261157654379721 0  0.2800464974185557 0.08982544815605742 0  0.098916018031319 0.09171660955420841 0  2.13125 0 0  2.118919042110979 0.3422084711244843 0  1.30625 0.41 0  0.89375 0 0  1.597888256393107 0.2173787389261347 0  0.20625 0 0  1.829299675393195 0.07400700849299596 0  1.71875 0.41 0  1.16875 0.41 0  2.038220665644273 0.332420740103091 0  0.34375 0 0  0.417496017710808 0.2696595573092803 0  0.2 0.07687845740457822 0  0.9295982307099278 0.1343158415898188 0  0.07390688010811153 0.1697064032433452 0  0.5238366813727013 0.2578302467013575 0  0.05452951551825875 0.25625 0  0.5229630068078351 0.1548816096928243 0  1.452769549894695 0.1548122580621249 0  1.369219062229598 0.07430640243902442 0  1.30625 0 0  0.8504409521244898 0.3356935975609756 0  0.8821881244591965 0.205 0  1.720943423819132 0.1714577452753128 0  1.157188124459196 0.205 0  1.094219062229598 0.07430640243902437 0  1.03125 0 0  1.304056576180868 0.1714577452753128 0  1.67579304192913 0.07430640243902437 0  0.2751941921308361 0.3346083473122598 0  1.209670467133757 0.1362100266964769 0  1.025335513626278 0.1700681449722324 0  0.7562500000000001 0.41 0  1.58125 0 0  0.7567170593862014 0.2409196493502535 0  0.6926714215682891 0.1272249611432207 0  0.4139715849905988 0.3397932387114203 0  0.9840787304190477 0.2717749043358119 0  0.06875000000000001 0.41 0  0 0.35875 0  0.9281250000000001 0.06276726142697993 0  0.5507396469029935 0.3219409231578227 0  0.5504468037989405 0.09136885600634273 0  1.58125 0.41 0  1.631724228912893 0.3381867502687533 0  1.825608881788174 0.14499488549201 0  1.85625 0 0  1.44375 0 0  1.44375 0.41 0  1.85625 0.41 0  2.13125 0.41 0  0.7562500000000001 0 0  0.89375 0.41 0  0.4812500000000001 0 0  0.34375 0.41 0  0.4812500000000001 0.41 0  0.20625 0.41 0  0.06875000000000001 0 0  1.16875 0 0  0.61875 0 0  0.61875 0.41 0  1.03125 0.41 0  1.71875 0 0  1.99375 0 0  1.99375 0.41 0  1.340625 0.3489494290853124 0  1.134375 0.3489494290853123 0  1.700180620188976 0.3438659752031281 0  2.135782184673599 0.07126652247502523 0  1.668441847249787 0.2129203728327609 0  1.295782514339747 0.2378437748815763 0  0.8233075729931248 0.06842334294821524 0  1.409375 0.3520314716057996 0  0.403505597322782 0.182067236678212 0  0.378125 0.05794951541303489 0  0.3043468223249023 0.1518321115979534 0  2.129248544730567 0.1906135162504124 0  2.060771381434487 0.1989445750470348 0  2.013252586573865 0.1496169464686054 0  1.942766402200229 0.1734448904596831 0  1.895522487186454 0.06076163953489683 0  2.069553871656643 0.06605731020975725 0  1.274680914880868 0.3520219391081363 0  1.614713220494657 0.09473434380863296 0  0.7899021319497519 0.3149123934144827 0  0.69518737419149 0.0634051089053758 0  0.2971740475496061 0.2592172353407536 0  1.72990325744076 0.2380068107952482 0  1.356580098625191 0.2120393231351682 0  2.034370752044885 0.2668681600792073 0  1.51768709249349 0.3426260931494756 0  1.561883724969884 0.1650446847858835 0  1.197344062229598 0.2523725417393646 0  1.804085235518364 0.3468178408964637 0  1.817887819205233 0.2589243285818559 0  1.905897727272727 0.3485060975609756 0  0.6719798073392919 0.2688965171178177 0  0 0.05125 0  0.653125 0.35875 0  0.6396896119294488 0.1627615407790282 0  0.4274150154087412 0.1242548552168279 0  1.192836486056382 0.3562350748565544 0  0.8279124365364005 0.183856489168822 0  1.097485222388854 0.2083571153401724 0  1.28257088594801 0.2944411014911587 0  1.474860187679412 0.2504218616229368 0  1.406767003493824 0.2829282258560709 0  0.446875 0.04619219810344041 0  0.515625 0.04585361801037557 0  0.592043440706648 0.05125 0  1.845656689180403 0.1998310418452388 0  2.144958525570388 0.2909790873294231 0  0.6171090763650112 0.2492366900333857 0  2.2 0.15375 0  0.5145586920831158 0.3648371739579888 0  1.57794966442982 0.3540357145964566 0  0.721875 0.3633107922168974 0  0.0496154796471391 0.333125 0  0.5843750000000001 0.3662560860076676 0  0.5810878747760798 0.1474002776121195 0  1.508991196088596 0.1421783375065625 0  0.8840670607017558 0.2640994375393898 0  0.09776612425612034 0.2204896805326566 0  1.50436820029908 0.06143401634903343 0  1.223857000523521 0.0823554862453532 0  1.153316824384777 0.1289850171317837 0  2.148922302309752 0.1258841779285271 0  0.309375 0.04312325590431198 0  1.621993280276081 0.2841214267927899 0  1.550118654119087 0.2461998729100966 0  1.327182649291491 0.1216967252533594 0  1.051977450479407 0.1221382572915816 0  1.753125 0.04556020050186112 0  1.271875 0.04556020050186116 0  0.9816084133102366 0.05126138213476004 0  1.039051841454368 0.0572224914831029 0  0.9719230514536006 0.3480477870845102 0  1.94956388244759 0.1180512551534177 0  1.949997712993411 0.04965831614304109 0  1.771961817615021 0.1530278789497521 0  1.909246823951428 0.2812757146784527 0  0.2459536687882397 0.04668633953831142 0  1.948575539857022 0.2445328248721197 0  1.697271520964565 0.1233917627620729 0  0.7964897648514618 0.1211426571931604 0  1.065625 0.3689344961371042 0  1.085849084308977 0.3170853572226867 0  0.4702981435440001 0.260434880697798 0  1.577403511714593 0.05463601888079143 0  0.05622663515370135 0.05493816910862376 0  0.3267207591099919 0.3566194660323104 0  0.9003051618565143 0.3564049499960621 0  1.751571320346033 0.3651102912045228 0  0.1583785085108421 0.2994699345738728 0  0.1455283439499995 0.3542795598723423 0  2.2 0.35875 0  0.2347662494194072 0.298325008655211 0  0.1527284455616188 0.1065771775690181 0  0.1382139529076665 0.05427454456341477 0  0.8749341636311069 0.05110114999892954 0  0.643661668713109 0.05693499781019222 0  1.466879772203159 0.3611261772912453 0  1.990280163552011 0.3564754268533217 0  1.17471064520912 0.2990917256188288 0  0.5202693090594349 0.206382495511728 0  0 0.25625 0  2.2 0.25625 0  2.2 0.05125 0  0 0.15375 0  1.853978576207987 0.35875 0  0.9787513713939683 0.1487523696999336 0  0.240625 0.3722153812029779 0  1.515638456102889 0.2882700110184686 0  0.09048297387599738 0.3637717362208066 0  2.150453692751374 0.2387066338105111 0  1.323782677156475 0.04897634338873398 0  0.8074131292871642 0.3624701995505916 0  1.409375 0.03715320121951221 0  1.406484531114799 0.1087852750766809 0  1.134375 0.03715320121951218 0  1.627401732573545 0.04552157221025036 0  0.1170173172005315 0.1427610859166811 0  2.045405893604797 0.1105340662939892 0  1.255408269734577 0.1577307500159216 0  2.028125 0.03707597992059326 0  0.4743610090857199 0.1421513964721819 0  0.9354010469015898 0.250631300585664 0  0.04420832937638274 0.128125 0  0.8922386349349938 0.0992956419364831 0  0.1197849154434487 0.2663398672460083 0  1.248258025468107 0.2565907092181813 0  0.3746885856929528 0.370723531618974 0  1.203125 0.0366132337404304 0  0.5724622277005015 0.2751253816079333 0  0.3365425205162783 0.08395777655057959 0  2.072662025974815 0.2975086504196739 0  0.4581080832182547 0.3648371739579888 0  0.3874522734668214 0.2295447548840689 0  0.7827853612484443 0.04106550386289586 0  1.887722846421017 0.1760882698830035 0  1.472640588990488 0.1118278026240017 0  1.865937103925594 0.2604137786483804 0  1.463913572748262 0.2030442564990043 0  1.376426316059077 0.3186741374914345 0  0.6641993820150034 0.3141688596240831 0  0.2943117490824315 0.2130987422685822 0  0.3478153998082709 0.1666571081082676 0  0.3427990510599805 0.2575950027870776 0  0.7997118993855807 0.2216171933356366 0  
[...]
<PointData  Vectors="f_31"> 
<DataArray  type="Float64"  Name="f_31"  NumberOfComponents="3" format="ascii">1.6816425967219309e-04 1.4949331207564763e-04 0.0000000000000000e+00  5.1377282542086257e-05 -1.0695402975574413e-04 0.0000000000000000e+00  -5.0796027283775431e-06 9.6920032867833496e-06 0.0000000000000000e+00  -4.4459887536054093e-05 -1.1547546743943230e-05 0.0000000000000000e+00  5.4203170482272124e-04 9.9033381977173469e-05 0.0000000000000000e+00  -2.3328843063949087e-04 7.3541723905556165e-05 0.0000000000000000e+00  -5.0431897957719058e-05 -6.1062289240161599e-05 0.0000000000000000e+00  1.2080973133581945e-04 -3.4260371869270477e-04 0.0000000000000000e+00  -1.0664601422081870e-04 -1.4284480320821691e-04 0.0000000000000000e+00  6.6160421476349187e-05 1.9757803827460991e-05 0.0000000000000000e+00  6.1188408254299613e-05 -6.9569207741655513e-06 0.0000000000000000e+00  -6.7867182453591236e-05 1.9373859513790056e-05 0.0000000000000000e+00  -2.3452113883755491e-04 1.6251234580562198e-04 0.0000000000000000e+00  9.9459031674103510e-05 2.1079383390288533e-04 0.0000000000000000e+00  -7.0070631575063117e-06 7.4082626133992393e-06 0.0000000000000000e+00  -4.7193525584795927e-06 1.7094451811590530e-05 0.0000000000000000e+00  1.4999898040004667e+00 -1.7179513670445398e-05 0.0000000000000000e+00  -1.8501602590446615e-05 1.4452514131358406e-05 0.0000000000000000e+00  -2.5994936362370299e-05 2.9517545732995275e-05 0.0000000000000000e+00  2.1369737153529439e-06 -4.2029764810030384e-05 0.0000000000000000e+00  -3.5492274617646160e-05 -2.8285467694537857e-05 0.0000000000000000e+00  -1.3656199627710944e-05 -8.4963638684842473e-06 0.0000000000000000e+00  5.2350995174578119e-06 -1.3290787466762529e-05 0.0000000000000000e+00  4.1058816884197139e-05 6.5467503129670125e-06 0.0000000000000000e+00  4.4220857360827766e-06 -4.9609429604135869e-06 0.0000000000000000e+00  -1.7630918304873351e-05 3.0827301735151521e-05 0.0000000000000000e+00  -2.4670087304747822e-05 -6.9854625375579230e-06 0.0000000000000000e+00  -1.0438656406163403e-05 9.0105903310246016e-06 0.0000000000000000e+00  -4.5583727095728793e-05 -2.0830349127192399e-05 0.0000000000000000e+00  1.0257368893939762e+00 1.3137133362039989e-04 0.0000000000000000e+00  1.0256536340676945e+00 -1.3726347315476555e-04 0.0000000000000000e+00  1.0252944823304933e+00 -3.7798474247761660e-04 0.0000000000000000e+00  1.0256567081500456e+00 -1.5465498226163087e-04 0.0000000000000000e+00  1.0257184724447979e+00 8.8513191744525759e-05 0.0000000000000000e+00  1.0265551636767705e+00 2.6988193460740520e-05 0.0000000000000000e+00  1.0137108151859746e+00 -2.7858162724681986e-03 0.0000000000000000e+00  1.0258022498678672e+00 -1.5106173575619568e-04 0.0000000000000000e+00  3.1862776071577046e-05 5.5631593195830228e-06 0.0000000000000000e+00  2.1169881627874079e-05 -7.7216524000594645e-06 0.0000000000000000e+00  1.0274480729571160e+00 -5.3379793088820248e-04 0.0000000000000000e+00  -4.9230724609664610e-05 -3.1563557983915341e-05 0.0000000000000000e+00  -3.5419540612007547e-06 9.2253278295629708e-06 0.0000000000000000e+00  -1.3645788705549366e-05 -1.0626003300320422e-05 0.0000000000000000e+00  1.0257963437505877e+00 2.4862598004882225e-04 0.0000000000000000e+00  1.3728271626062410e-05 1.0408761544437101e-05 0.0000000000000000e+00  3.1944746366091365e-06 1.3192809154985413e-06 0.0000000000000000e+00  -4.2311216766560222e-06 1.7390131723158949e-05 0.0000000000000000e+00  1.0257028950338594e+00 -1.9597386236829185e-04 0.0000000000000000e+00  3.0445585705096779e-05 6.4406289047994962e-06 0.0000000000000000e+00  -1.8182919862364474e-05 1.1806673814662207e-05 0.0000000000000000e+00  -1.9438670347537990e-05 4.9863099871108181e-06 0.0000000000000000e+00  -5.3334712627907139e-05 -3.9075795767126477e-05 0.0000000000000000e+00  2.5261539467929178e-06 1.2203404962243159e-05 0.0000000000000000e+00  -5.0502776299490577e-05 2.9313094862430823e-05 0.0000000000000000e+00  -1.6692918048865548e-05 -1.7291368687544891e-05 0.0000000000000000e+00  1.0255187496437261e+00 -1.6347107168273711e-04 0.0000000000000000e+00  -2.9470755577461702e-05 1.8246554034838001e-05 0.0000000000000000e+00  1.0257797885344291e+00 1.8393824374783021e-05 0.0000000000000000e+00  1.0255442301462852e+00 -1.7821921356619202e-04 0.0000000000000000e+00  1.0256756182516165e+00 2.1211115191316982e-05 0.0000000000000000e+00  1.0257313755354267e+00 -1.8762581791337529e-04 0.0000000000000000e+00  1.0258970646461358e+00 2.4531784271807127e-04 0.0000000000000000e+00  1.0488495772703814e+00 -8.1996265034964710e-02 0.0000000000000000e+00  1.0255791570723050e+00 -1.6085587961917522e-04 0.0000000000000000e+00  1.0258183718143028e+00 3.1047320737085076e-04 0.0000000000000000e+00  1.0253807641600814e+00 -1.8865618092407706e-04 0.0000000000000000e+00  1.0258379009992256e+00 -1.3700010412579389e-03 0.0000000000000000e+00  1.0242555826504098e+00 1.5574156378519758e-04 0.0000000000000000e+00  1.0116425300922576e+00 6.0696732174210836e-02 0.0000000000000000e+00  1.1251681956495718e+00 -1.7163393522369460e-05 0.0000000000000000e+00  1.1251767610721362e+00 8.9121418456907664e-05 0.0000000000000000e+00  1.0260152720746261e+00 -2.8874112441932599e-04 0.0000000000000000e+00  1.0261241780125456e+00 7.9890337803521748e-03 0.0000000000000000e+00  1.0236818460036328e+00 -8.9568159123430745e-04 0.0000000000000000e+00  1.0296717099311898e+00 -1.0127429973332264e-02 0.0000000000000000e+00  1.0259522757396435e+00 -5.2591482627915138e-04 0.0000000000000000e+00  1.0259102108500873e+00 -2.3122314244687924e-04 0.0000000000000000e+00  1.0256963180301417e+00 2.0688246910840246e-04 0.0000000000000000e+00  1.0253800693549522e+00 9.8454003271877577e-05 0.0000000000000000e+00  1.0253675031979330e+00 2.7608930012837574e-04 0.0000000000000000e+00  1.0228917543180953e+00 1.2354367638750016e-03 0.0000000000000000e+00  1.0257860943218327e+00 5.5324043861515312e-05 0.0000000000000000e+00  1.0260323161030129e+00 -4.0600100490764852e-04 0.0000000000000000e+00  1.0254552497258314e+00 -4.5114048077063510e-04 0.0000000000000000e+00  1.0256516033789127e+00 4.7040349555003323e-04 0.0000000000000000e+00  1.0275000373771659e+00 4.5669502973585426e-04 0.0000000000000000e+00  1.0260739298193537e+00 -1.3819481297357440e-04 0.0000000000000000e+00  1.0256392721655563e+00 -1.3036445362342227e-04 0.0000000000000000e+00  1.0255909662366223e+00 -1.6127599603808746e-04 0.0000000000000000e+00  1.0270341726876664e+00 5.6439006950759142e-04 0.0000000000000000e+00  1.0249838637573900e+00 9.4668342302476724e-05 0.0000000000000000e+00  1.0256519787999223e+00 -2.1348974574558963e-04 0.0000000000000000e+00  1.0884018790496537e+00 2.9466406344559531e-01 0.0000000000000000e+00  1.0255400141919810e+00 -1.1675631602871950e-04 0.0000000000000000e+00  9.1747077817687361e-01 -2.8811621112077534e-02 0.0000000000000000e+00  1.0256094424493780e+00 -1.4471335480805843e-04 0.0000000000000000e+00  1.0256537915753390e+00 -1.1704410642975902e-04 0.0000000000000000e+00  1.2620692295868974e+00 4.4722921132957449e-02 0.0000000000000000e+00  1.0257905341841420e+00 2.4346663021532544e-04 0.0000000000000000e+00  1.1535989170144674e+00 1.4386769036983213e-01 0.0000000000000000e+00  1.0689801458640971e+00 -3.0001010340850037e-01 0.0000000000000000e+00  1.5868630176039597e-05 -3.3965545740880524e-05 0.0000000000000000e+00  1.0251991798169751e+00 -2.3393031197970577e-04 0.0000000000000000e+00  -8.1884030025276879e-06 3.7863349288914786e-06 0.0000000000000000e+00  -2.0414256911967189e-06 -1.1381176288478837e-05 0.0000000000000000e+00  1.0257079382549632e+00 2.3674083680711897e-05 0.0000000000000000e+00  -8.6972551980170169e-07 -1.4040058288502242e-05 0.0000000000000000e+00  1.0252960130593232e+00 -5.6768387639643441e-04 0.0000000000000000e+00  -3.8473164370264371e-05 2.6333427505141879e-05 0.0000000000000000e+00  3.8180019811882925e-05 -1.7072333474643879e-07 0.0000000000000000e+00  1.0250276162442173e+00 5.3777885771750036e-04 0.0000000000000000e+00  -2.5200913483108030e-05 2.3024922188545737e-05 0.0000000000000000e+00  1.0146292063275919e+00 -2.6009571226788920e-02 0.0000000000000000e+00  1.3162320916726928e+00 -3.2061158515218152e-02 0.0000000000000000e+00  1.0256474307181536e+00 -2.0065514383868887e-04 0.0000000000000000e+00  1.1303202708209810e+00 -1.9327028349335459e-01 0.0000000000000000e+00  1.0229404516243550e+00 -4.9049919273659965e-03 0.0000000000000000e+00  1.2346450862352254e+00 3.1129945056218894e-01 0.0000000000000000e+00  1.0215662382842232e+00 2.3047194034579404e-03 0.0000000000000000e+00  1.0258278106908481e+00 1.6926135047386142e-04 0.0000000000000000e+00  1.0240314940680597e+00 -8.0674036962852323e-04 0.0000000000000000e+00  -1.0709648810145761e-05 7.9295717375444860e-06 0.0000000000000000e+00  1.0256567963990841e+00 -4.1702722653452458e-04 0.0000000000000000e+00  1.0257279704644509e+00 -1.6576327041351933e-04 0.0000000000000000e+00  1.0257039644200427e+00 -8.2056973144341316e-05 0.0000000000000000e+00  1.0255921606065244e+00 -7.7302987979349657e-05 0.0000000000000000e+00  1.0256783901532238e+00 -4.7953781964231489e-04 0.0000000000000000e+00  -4.5297426779699210e-06 8.9597062922191125e-07 0.0000000000000000e+00  1.0257650866615662e+00 2.6123648679743280e-04 0.0000000000000000e+00  1.0247099247798810e+00 -7.3595102066440269e-04 0.0000000000000000e+00  1.1713483934915911e+00 -9.1284412235380474e-02 0.0000000000000000e+00  1.0254480239594022e+00 1.3014010461770762e-04 0.0000000000000000e+00  1.0256035599756972e+00 -1.4951771506732911e-04 0.0000000000000000e+00  -4.3651786305175633e-06 3.2081002671466219e-06 0.0000000000000000e+00  -3.4336780604821536e-05 -4.2843569371101981e-06 0.0000000000000000e+00  1.0256736899594996e+00 -3.3228110986423818e-04 0.0000000000000000e+00  1.0254022651693939e+00 5.7974343256179622e-05 0.0000000000000000e+00  1.0426038054931155e+00 -2.2085923146394359e-02 0.0000000000000000e+00  1.0256273903606847e+00 -1.5610725072038594e-04 0.0000000000000000e+00  -9.0525872968929720e-05 -9.7812955370454061e-06 0.0000000000000000e+00  6.5644776895680801e-01 8.5153938026320589e-05 0.0000000000000000e+00  1.0264281967031703e+00 -3.0917254463298343e-04 0.0000000000000000e+00  1.0275090271491656e+00 -3.6994123524902037e-03 0.0000000000000000e+00  1.0251652794159620e+00 2.3012126943781777e-03 0.0000000000000000e+00  -1.9251675653646620e-05 5.8693076175153849e-07 0.0000000000000000e+00  1.0234161042393157e+00 1.1825863835364533e-03 0.0000000000000000e+00  1.0256335063870361e+00 -2.0292335498807654e-04 0.0000000000000000e+00  -2.1058639827676108e-05 -7.5628462523401255e-06 0.0000000000000000e+00  -1.7916487507228172e-05 -1.4655365171445667e-05 0.0000000000000000e+00  -3.5276064537302252e-05 3.5453570201139866e-05 0.0000000000000000e+00  3.7383404565963051e-05 -2.5488739870949955e-05 0.0000000000000000e+00  -1.9997449029704714e-05 8.9961317010194409e-06 0.0000000000000000e+00  -4.9790903657759186e-06 -1.2724254213830666e-05 0.0000000000000000e+00  -4.4587823602345867e-05 -5.2052675210842207e-06 0.0000000000000000e+00  -5.9600800114439193e-06 -1.9200085682171684e-05 0.0000000000000000e+00  7.1159877699700951e-06 1.0130354679721748e-06 0.0000000000000000e+00  -1.4900160170868603e-05 2.1696022341681026e-05 0.0000000000000000e+00  -2.0017055157405310e-05 2.6913256256152946e-05 0.0000000000000000e+00  -5.9686271536273065e-05 -2.2907952310990918e-05 0.0000000000000000e+00  -5.8614044967490402e-06 -1.0461678316550502e-05 0.0000000000000000e+00  3.6916792703374828e-05 -8.5927102603352737e-06 0.0000000000000000e+00  -5.9710974155495408e-05 4.0241655541506091e-05 0.0000000000000000e+00  -3.3712424644192854e-05 -3.2068719911978628e-05 0.0000000000000000e+00  -8.6137114003452659e-06 5.4718875050653130e-06 0.0000000000000000e+00  -1.2595308489415525e-05 9.6277698434466671e-06 0.0000000000000000e+00  1.6718132975301046e-06 1.8429811357145646e-05 0.0000000000000000e+00  1.0137617123983025e+00 7.5393004814072930e-03 0.0000000000000000e+00  1.0242971546215500e+00 -6.7570518983070809e-04 0.0000000000000000e+00  1.0259275413508375e+00 7.9300870635712795e-04 0.0000000000000000e+00  1.0258920355361316e+00 2.0120546113386222e-03 0.0000000000000000e+00  1.0257132674571769e+00 -1.6277860071933012e-05 0.0000000000000000e+00  1.0258502380118755e+00 1.6127632908787137e-04 0.0000000000000000e+00  1.0248534261075211e+00 -1.8247028791514596e-03 0.0000000000000000e+00  1.0246252747602922e+00 1.7950562186980386e-03 0.0000000000000000e+00  9.9120046259122585e-01 9.0827920245309269e-03 0.0000000000000000e+00  1.0569254088659388e+00 2.9352319470229076e-02 0.0000000000000000e+00  9.3253142391020449e-01 1.7655858767544005e-01 0.0000000000000000e+00  1.0262194913079958e+00 6.8392369983818341e-05 0.0000000000000000e+00  1.0259397224729230e+00 -5.4304463043648550e-05 0.0000000000000000e+00  1.0257995952027890e+00 -5.3536317690022567e-05 0.0000000000000000e+00  1.0256755877930779e+00 -1.4660039945090837e-04 0.0000000000000000e+00  1.0233233557937997e+00 -1.3450300613519124e-03 0.0000000000000000e+00  1.0230292670480334e+00 -1.2455364138398361e-03 0.0000000000000000e+00  1.0285921297877110e+00 -2.3067633575188573e-03 0.0000000000000000e+00  1.0255490075032534e+00 1.1772760311114905e-04 0.0000000000000000e+00  1.0256046126301286e+00 5.5136269525510670e-05 0.0000000000000000e+00  1.0268146930276369e+00 1.9135595401689424e-03 0.0000000000000000e+00  9.5855841143014542e-01 -2.2743715845134305e-01 0.0000000000000000e+00  1.0256641535374098e+00 -6.0633904031309177e-05 0.0000000000000000e+00  1.0258008203123579e+00 2.4165187548444588e-04 0.0000000000000000e+00  1.0258408787177522e+00 -1.5519603605675743e-04 0.0000000000000000e+00  1.0257212443736858e+00 -4.5244118956042951e-04 0.0000000000000000e+00  1.0257407713377693e+00 3.4080843300790214e-05 0.0000000000000000e+00  1.0257935740828510e+00 -1.0265947294857365e-04 0.0000000000000000e+00  1.0243803988044673e+00 3.7414375864875288e-04 0.0000000000000000e+00  1.0256185188660345e+00 -1.6679716819990314e-04 0.0000000000000000e+00  1.0233169764212535e+00 -5.1565000034362099e-05 0.0000000000000000e+00  1.0255652268865705e+00 -8.2769494826668080e-04 0.0000000000000000e+00  6.5641689507998313e-01 -5.8026733000588852e-05 0.0000000000000000e+00  1.0216125312474726e+00 -6.7350168849994476e-05 0.0000000000000000e+00  1.0249064851363716e+00 2.4396728160124368e-06 0.0000000000000000e+00  1.0181984105808397e+00 1.9807660343440843e-02 0.0000000000000000e+00  1.0275686610696775e+00 -2.0098880417600508e-03 0.0000000000000000e+00  1.0256109309428862e+00 -1.6260433049004438e-04 0.0000000000000000e+00  1.0255965513963143e+00 -1.1161505448298530e-04 0.0000000000000000e+00  1.0260249779939437e+00 1.9854135653875351e-04 0.0000000000000000e+00  1.0256832529142619e+00 2.1099248291558487e-04 0.0000000000000000e+00  1.0257341502111874e+00 3.2969016823212007e-04 0.0000000000000000e+00  1.0436461983193024e+00 8.3843919840802649e-03 0.0000000000000000e+00  1.0243507774033573e+00 8.3198496009268921e-05 0.0000000000000000e+00  1.0172377082244464e+00 -2.6359979160763864e-03 0.0000000000000000e+00  1.0256415570799979e+00 -1.8230229415233792e-04 0.0000000000000000e+00  1.0263121344602519e+00 -7.7928192244071783e-04 0.0000000000000000e+00  1.0249424810920587e+00 -1.3062620043306635e-03 0.0000000000000000e+00  1.0266739602988553e+00 1.7216235089699688e-04 0.0000000000000000e+00  1.0419281527294078e+00 -4.6843042195040827e-03 0.0000000000000000e+00  1.0241047972257220e+00 -2.3873064739516559e-04 0.0000000000000000e+00  1.0201119643313301e+00 5.3780577373456024e-03 0.0000000000000000e+00  9.2766054578190027e-01 4.2422378215841122e-01 0.0000000000000000e+00  1.0379735504180345e+00 4.1467687550464797e-03 0.0000000000000000e+00  1.0240335848928066e+00 8.5673066953104973e-04 0.0000000000000000e+00  1.0258402268293014e+00 3.2176562398624353e-05 0.0000000000000000e+00  1.0257022305990544e+00 -1.5003301978390522e-04 0.0000000000000000e+00  9.8475988004371762e-01 1.4800945586162823e-01 0.0000000000000000e+00  1.0259339805834462e+00 -1.4273654663562779e-03 0.0000000000000000e+00  1.0252221609330978e+00 2.5232426834127878e-04 0.0000000000000000e+00  1.0254678870628835e+00 -9.1732641550288041e-05 0.0000000000000000e+00  1.0263383042466903e+00 5.8735861044525745e-04 0.0000000000000000e+00  1.1228295450223120e+00 3.7241932584516885e-02 0.0000000000000000e+00  1.0256852955153821e+00 -9.1989675530674384e-05 0.0000000000000000e+00  1.0255988766839634e+00 1.0494108869583071e-04 0.0000000000000000e+00  1.0257949131564621e+00 3.2512194283919983e-04 0.0000000000000000e+00  1.0255927423713562e+00 -1.5931925008411441e-04 0.0000000000000000e+00  1.0200098959174286e+00 -7.4414685478721345e-03 0.0000000000000000e+00  1.0141460891885317e+00 -3.4475223995380534e-03 0.0000000000000000e+00  1.0243912500842391e+00 -5.6457444439902808e-04 0.0000000000000000e+00  1.0276013405671531e+00 2.1724361678170938e-03 0.0000000000000000e+00  1.0232178082575656e+00 1.1624763931414269e-03 0.0000000000000000e+00  1.0257067933803725e+00 -2.9002970774389970e-05 0.0000000000000000e+00  1.0334466638106152e+00 -7.1130561312501871e-04 0.0000000000000000e+00  1.0257160796109119e+00 -1.8162707062185300e-04 0.0000000000000000e+00  1.0256480531112904e+00 -3.8040804531622120e-04 0.0000000000000000e+00  1.2197745406275877e+00 3.4180536838936335e-02 0.0000000000000000e+00  1.0257583035815196e+00 -2.4338357089569428e-04 0.0000000000000000e+00  1.0258722121622548e+00 -1.1213647025339949e-04 0.0000000000000000e+00  1.0256686639615826e+00 -1.8606661381849872e-05 0.0000000000000000e+00  1.0187257754802683e+00 9.7644214894826233e-05 0.0000000000000000e+00  1.0251878760850950e+00 2.7592679768666554e-04 0.0000000000000000e+00  1.0194526678749725e+00 -1.1082902250292870e-02 0.0000000000000000e+00  1.0206528580365004e+00 5.9693051404993752e-05 0.0000000000000000e+00  8.3577360622812291e-01 -3.1998178117285919e-01 0.0000000000000000e+00  1.1049897104488966e+00 -4.7238775223579652e-02 0.0000000000000000e+00  1.0141341530633288e+00 6.1238621343309057e-03 0.0000000000000000e+00  1.0194511503705352e+00 2.3503831800386898e-03 0.0000000000000000e+00  1.2902401482295800e+00 2.6551437269961015e-01 0.0000000000000000e+00  1.1384756838046164e+00 1.2155007525794508e-01 0.0000000000000000e+00  1.0262651213760969e+00 -2.9921621446761543e-03 0.0000000000000000e+00  1.3740724723203519e+00 -1.4402499678263642e-01 0.0000000000000000e+00  1.2644249077604961e+00 -3.1741358538840964e-01 0.0000000000000000e+00  1.1263471144587829e+00 -1.4393737563037318e-01 0.0000000000000000e+00  1.0176037548791224e+00 -4.9237482335292163e-03 0.0000000000000000e+00  1.0136150190272020e+00 -6.1862220213081765e-03 0.0000000000000000e+00  1.0210904382407835e+00 3.1807661331058916e-03 0.0000000000000000e+00  1.0244739250604151e+00 4.3751532606004862e-04 0.0000000000000000e+00  1.0257215874376830e+00 -3.3711001677074300e-04 0.0000000000000000e+00  1.0204294717620077e+00 -1.4937268197655828e-03 0.0000000000000000e+00  1.4062768170257360e+00 -2.6975962153280935e-05 0.0000000000000000e+00  1.0267668849447007e+00 -1.0078913847493056e-04 0.0000000000000000e+00  1.0243314029754269e+00 -2.6256437815797305e-04 0.0000000000000000e+00  1.4062446091166703e+00 3.9890221363807051e-05 0.0000000000000000e+00  1.0254056380344760e+00 -5.2035935461423562e-04 0.0000000000000000e+00  1.0255955734628477e+00 -1.8015487604869794e-04 0.0000000000000000e+00  1.2086453324150559e+00 -2.2177233926522748e-02 0.0000000000000000e+00  1.0256174434954675e+00 2.3773324030034287e-04 0.0000000000000000e+00  9.5575808678087282e-01 1.8611261814336533e-01 0.0000000000000000e+00  1.0263548878084177e+00 -1.8893894286743963e-04 0.0000000000000000e+00  1.0274032448346524e+00 -4.5718913866145934e-03 0.0000000000000000e+00  1.0238986473341674e+00 8.1221236552179218e-04 0.0000000000000000e+00  1.0001543074773804e+00 -1.0162993684377309e-02 0.0000000000000000e+00  1.0258364205406794e+00 2.5730893533918283e-04 0.0000000000000000e+00  1.0304788581206228e+00 -2.1791094003458726e-03 0.0000000000000000e+00  1.033862267575974