<?xml version="1.0"?>
<VTKFile type="UnstructuredGrid"  version="0.1"  >
<UnstructuredGrid>
<Piece  NumberOfPoints="2446" NumberOfCells="4585">
<Points>
<DataArray  type="Float64"  NumberOfComponents="3"  format="ascii">0 0.41 0  0 0 0  2.2 0 0  2.2 0.41 0  0.2404508497187474 0.2293892626146237 0  0.25 0.2 0  0.2404508497187474 0.1706107373853764 0  0.2154508497187474 0.1524471741852423 0  0.1845491502812526 0.1524471741852423 0  0.1595491502812526 0.1706107373853764 0  0.15 0.2 0  0.1595491502812526 0.2293892626146237 0  0.1845491502812527 0.2475528258147577 0  0.2154508497187474 0.2475528258147577 0  1.1 0 0  1.1 0.41 0  0 0.205 0  0.55 0 0  0.55 0.41 0  0.275 0 0  0.275 0.41 0  1.65 0.41 0  1.65 0 0  0.8250000000000001 0.41 0  0.8250000000000001 0 0  1.375 0 0  1.375 0.41 0  1.925 0 0  1.925 0.41 0  1.5125 0.205 0  1.7875 0.205 0  0.6875 0.205 0  0.9625000000000001 0.205 0  1.2375 0.205 0  2.2 0.205 0  0.4687002074688797 0.2068568464730291 0  1.99375 0.2152743902439024 0  2.0625 0 0  2.0625 0.41 0  2.2 0.3075 0  0.4125 0 0  0.4125 0.41 0  1.7875 0.41 0  1.375 0.1486128048780488 0  1.5125 0 0  1.7875 0 0  1.5125 0.41 0  0.8250000000000001 0.2613871951219511 0  0.9625000000000001 0.41 0  0.9625000000000001 0 0  0.6875 0.41 0  0.6875 0 0  0.1375 0 0  0.1375 0.41 0  1.2375 0 0  1.1 0.1486128048780487 0  1.2375 0.41 0  1.65 0.1486128048780487 0  1.126715909090909 0.2793064024390244 0  1.676715909090909 0.2793064024390244 0  0.8517159090909092 0.1306935975609756 0  1.348284090909091 0.2793064024390244 0  0.34375 0.3032389320646208 0  1.894702181800738 0.1282910975492754 0  2.092797818199262 0.1282910975492754 0  1.85625 0.3075 0  0.61875 0.3075 0  0.61875 0.1025 0  0.3648540804333487 0.1240075933101478 0  0 0.3075 0  0 0.1025 0  2.099172119769978 0.25625 0  0.48125 0.09238439620688085 0  0.5781001037344399 0.2059284232365146 0  0.48125 0.3196743479159776 0  0.7265881057911006 0.3055240343720796 0  1.99375 0.08395950269330846 0  1.459960956013612 0.3075 0  1.569025960719943 0.2986889805672169 0  0.75625 0.08213100772579164 0  1.03125 0.3278689922742084 0  0.923871252904788 0.3078247185783941 0  1.959375 0.3126371951219512 0  1.749222215368287 0.1025 0  1.275777784631713 0.1025 0  2.2 0.1025 0  1.225938124459196 0.3075 0  1.550777784631713 0.1025 0  1.000777784631713 0.1025 0  1.44375 0.07430640243902442 0  1.16875 0.07430640243902437 0  1.899250267340833 0.2229966846119207 0  0.1020898364287272 0.3140258291809757 0  1.766482954545455 0.2934032012195123 0  0.3405058858996321 0.2119987970531874 0  0.7710785630958338 0.1710968191298857 0  1.046078563095834 0.2389031808701144 0  0.2 0.3400647632937836 0  1.421109702350723 0.2261157654379721 0  0.2800464974185557 0.08982544815605742 0  0.098916018031319 0.09171660955420841 0  2.13125 0 0  2.118919042110979 0.3422084711244843 0  1.30625 0.41 0  0.89375 0 0  1.597888256393107 0.2173787389261347 0  0.20625 0 0  1.829299675393195 0.07400700849299596 0  1.71875 0.41 0  1.16875 0.41 0  2.038220665644273 0.332420740103091 0  0.34375 0 0  0.417496017710808 0.2696595573092803 0  0.2 0.07687845740457822 0  0.9295982307099278 0.1343158415898188 0  0.07390688010811153 0.1697064032433452 0  0.5238366813727013 0.2578302467013575 0  0.05452951551825875 0.25625 0  0.5229630068078351 0.1548816096928243 0  1.452769549894695 0.1548122580621249 0  1.369219062229598 0.07430640243902442 0  1.30625 0 0  0.8504409521244898 0.3356935975609756 0  0.8821881244591965 0.205 0  1.720943423819132 0.1714577452753128 0  1.157188124459196 0.205 0  1.094219062229598 0.07430640243902437 0  1.03125 0 0  1.304056576180868 0.1714577452753128 0  1.67579304192913 0.07430640243902437 0  0.2751941921308361 0.3346083473122598 0  1.209670467133757 0.1362100266964769 0  1.025335513626278 0.1700681449722324 0  0.7562500000000001 0.41 0  1.58125 0 0  0.7567170593862014 0.2409196493502535 0  0.6926714215682891 0.1272249611432207 0  0.4139715849905988 0.3397932387114203 0  0.9840787304190477 0.2717749043358119 0  0.06875000000000001 0.41 0  0 0.35875 0  0.9281250000000001 0.06276726142697993 0  0.5507396469029935 0.3219409231578227 0  0.5504468037989405 0.09136885600634273 0  1.58125 0.41 0  1.631724228912893 0.3381867502687533 0  1.825608881788174 0.14499488549201 0  1.85625 0 0  1.44375 0 0  1.44375 0.41 0  1.85625 0.41 0  2.13125 0.41 0  0.7562500000000001 0 0  0.89375 0.41 0  0.4812500000000001 0 0  0.34375 0.41 0  0.4812500000000001 0.41 0  0.20625 0.41 0  0.06875000000000001 0 0  1.16875 0 0  0.61875 0 0  0.61875 0.41 0  1.03125 0.41 0  1.71875 0 0  1.99375 0 0  1.99375 0.41 0  1.340625 0.3489494290853124 0  1.134375 0.3489494290853123 0  1.700180620188976 0.3438659752031281 0  2.135782184673599 0.07126652247502523 0  1.668441847249787 0.2129203728327609 0  1.295782514339747 0.2378437748815763 0  0.8233075729931248 0.06842334294821524 0  1.409375 0.3520314716057996 0  0.403505597322782 0.182067236678212 0  0.378125 0.05794951541303489 0  0.3043468223249023 0.1518321115979534 0  2.129248544730567 0.1906135162504124 0  2.060771381434487 0.1989445750470348 0  2.013252586573865 0.1496169464686054 0  1.942766402200229 0.1734448904596831 0  1.895522487186454 0.06076163953489683 0  2.069553871656643 0.06605731020975725 0  1.274680914880868 0.3520219391081363 0  1.614713220494657 0.09473434380863296 0  0.7899021319497519 0.3149123934144827 0  0.69518737419149 0.0634051089053758 0  0.2971740475496061 0.2592172353407536 0  1.72990325744076 0.2380068107952482 0  1.356580098625191 0.2120393231351682 0  2.034370752044885 0.2668681600792073 0  1.51768709249349 0.3426260931494756 0  1.561883724969884 0.1650446847858835 0  1.197344062229598 0.2523725417393646 0  1.804085235518364 0.3468178408964637 0  1.817887819205233 0.2589243285818559 0  1.905897727272727 0.3485060975609756 0  0.6719798073392919 0.2688965171178177 0  0 0.05125 0  0.653125 0.35875 0  0.6396896119294488 0.1627615407790282 0  0.4274150154087412 0.1242548552168279 0  1.192836486056382 0.3562350748565544 0  0.8279124365364005 0.183856489168822 0  1.097485222388854 0.2083571153401724 0  1.28257088594801 0.2944411014911587 0  1.474860187679412 0.2504218616229368 0  1.406767003493824 0.2829282258560709 0  0.446875 0.04619219810344041 0  0.515625 0.04585361801037557 0  0.592043440706648 0.05125 0  1.845656689180403 0.1998310418452388 0  2.144958525570388 0.2909790873294231 0  0.6171090763650112 0.2492366900333857 0  2.2 0.15375 0  0.5145586920831158 0.3648371739579888 0  1.57794966442982 0.3540357145964566 0  0.721875 0.3633107922168974 0  0.0496154796471391 0.333125 0  0.5843750000000001 0.3662560860076676 0  0.5810878747760798 0.1474002776121195 0  1.508991196088596 0.1421783375065625 0  0.8840670607017558 0.2640994375393898 0  0.09776612425612034 0.2204896805326566 0  1.50436820029908 0.06143401634903343 0  1.223857000523521 0.0823554862453532 0  1.153316824384777 0.1289850171317837 0  2.148922302309752 0.1258841779285271 0  0.309375 0.04312325590431198 0  1.621993280276081 0.2841214267927899 0  1.550118654119087 0.2461998729100966 0  1.327182649291491 0.1216967252533594 0  1.051977450479407 0.1221382572915816 0  1.753125 0.04556020050186112 0  1.271875 0.04556020050186116 0  0.9816084133102366 0.05126138213476004 0  1.039051841454368 0.0572224914831029 0  0.9719230514536006 0.3480477870845102 0  1.94956388244759 0.1180512551534177 0  1.949997712993411 0.04965831614304109 0  1.771961817615021 0.1530278789497521 0  1.909246823951428 0.2812757146784527 0  0.2459536687882397 0.04668633953831142 0  1.948575539857022 0.2445328248721197 0  1.697271520964565 0.1233917627620729 0  0.7964897648514618 0.1211426571931604 0  1.065625 0.3689344961371042 0  1.085849084308977 0.3170853572226867 0  0.4702981435440001 0.260434880697798 0  1.577403511714593 0.05463601888079143 0  0.05622663515370135 0.05493816910862376 0  0.3267207591099919 0.3566194660323104 0  0.9003051618565143 0.3564049499960621 0  1.751571320346033 0.3651102912045228 0  0.1583785085108421 0.2994699345738728 0  0.1455283439499995 0.3542795598723423 0  2.2 0.35875 0  0.2347662494194072 0.298325008655211 0  0.1527284455616188 0.1065771775690181 0  0.1382139529076665 0.05427454456341477 0  0.8749341636311069 0.05110114999892954 0  0.643661668713109 0.05693499781019222 0  1.466879772203159 0.3611261772912453 0  1.990280163552011 0.3564754268533217 0  1.17471064520912 0.2990917256188288 0  0.5202693090594349 0.206382495511728 0  0 0.25625 0  2.2 0.25625 0  2.2 0.05125 0  0 0.15375 0  1.853978576207987 0.35875 0  0.9787513713939683 0.1487523696999336 0  0.240625 0.3722153812029779 0  1.515638456102889 0.2882700110184686 0  0.09048297387599738 0.3637717362208066 0  2.150453692751374 0.2387066338105111 0  1.323782677156475 0.04897634338873398 0  0.8074131292871642 0.3624701995505916 0  1.409375 0.03715320121951221 0  1.406484531114799 0.1087852750766809 0  1.134375 0.03715320121951218 0  1.627401732573545 0.04552157221025036 0  0.1170173172005315 0.1427610859166811 0  2.045405893604797 0.1105340662939892 0  1.255408269734577 0.1577307500159216 0  2.028125 0.03707597992059326 0  0.4743610090857199 0.1421513964721819 0  0.9354010469015898 0.250631300585664 0  0.04420832937638274 0.128125 0  0.8922386349349938 0.0992956419364831 0  0.1197849154434487 0.2663398672460083 0  1.248258025468107 0.2565907092181813 0  0.3746885856929528 0.370723531618974 0  1.203125 0.0366132337404304 0  0.5724622277005015 0.2751253816079333 0  0.3365425205162783 0.08395777655057959 0  2.072662025974815 0.2975086504196739 0  0.4581080832182547 0.3648371739579888 0  0.3874522734668214 0.2295447548840689 0  0.7827853612484443 0.04106550386289586 0  1.887722846421017 0.1760882698830035 0  1.472640588990488 0.1118278026240017 0  1.865937103925594 0.2604137786483804 0  1.463913572748262 0.2030442564990043 0  1.376426316059077 0.3186741374914345 0  0.6641993820150034 0.3141688596240831 0  0.2943117490824315 0.2130987422685822 0  0.3478153998082709 0.1666571081082676 0  0.3427990510599805 0.2575950027870776 0  0.7997118993855807 0.2216171933356366 0  
[...]
<PointData  Vectors="f_31"> 
<DataArray  type="Float64"  Name="f_31"  NumberOfComponents="3" format="ascii">2.1917885910674871e-06 3.7812154919330727e-08 0.0000000000000000e+00  -2.2808516879331442e-06 -2.5199714706968475e-08 0.0000000000000000e+00  3.8631182568385292e-06 -4.3727439465098346e-09 0.0000000000000000e+00  -1.6455200605364125e-05 -1.1957444789614253e-08 0.0000000000000000e+00  -4.3420218014303036e-06 -3.7201725755751152e-06 0.0000000000000000e+00  -1.6428239185950206e-06 -4.1616861128912463e-06 0.0000000000000000e+00  -4.3468891357303151e-07 -4.1996812158559047e-06 0.0000000000000000e+00  -5.1558381900304454e-06 2.7499927931021940e-06 0.0000000000000000e+00  -2.3618703450144086e-06 1.1328562038915931e-06 0.0000000000000000e+00  2.0623318213543713e-06 -1.6698192753376657e-06 0.0000000000000000e+00  6.5212240958906181e-07 3.2025681395350692e-06 0.0000000000000000e+00  -1.0401566012334981e-05 -4.3526039209943950e-06 0.0000000000000000e+00  5.8013068930789030e-06 5.0230603033044532e-06 0.0000000000000000e+00  -1.3926282268934573e-05 -1.0874088092216686e-07 0.0000000000000000e+00  -2.5635300284541394e-06 -4.2654459166206388e-09 0.0000000000000000e+00  -1.5903507089971250e-08 -1.8110416670355485e-08 0.0000000000000000e+00  1.5000043330023964e+00 -2.4080196561056360e-07 0.0000000000000000e+00  6.2582613714156471e-06 7.6675207832660556e-07 0.0000000000000000e+00  6.2661944254839885e-06 3.0507203176203978e-07 0.0000000000000000e+00  2.3512172139803010e-06 2.1560030625190013e-07 0.0000000000000000e+00  -2.1863650489129823e-06 -1.7072709568641437e-07 0.0000000000000000e+00  3.8213008502100630e-07 -3.2709781077983214e-09 0.0000000000000000e+00  2.7586696812240114e-07 -2.2936655641691066e-09 0.0000000000000000e+00  1.8227548273025105e-06 4.9650415880370048e-09 0.0000000000000000e+00  -4.9160229959775977e-06 2.3629199923363732e-08 0.0000000000000000e+00  -3.8272287138661808e-06 2.0809617275076960e-09 0.0000000000000000e+00  -6.8327352623777886e-07 2.4937011390426258e-08 0.0000000000000000e+00  -2.9563347057389447e-06 1.2583497936853126e-08 0.0000000000000000e+00  -2.2678358454193813e-06 -1.3265940894565464e-09 0.0000000000000000e+00  1.1312477463026545e+00 5.4866631740508565e-05 0.0000000000000000e+00  1.1313315594267754e+00 2.2958322021494285e-05 0.0000000000000000e+00  1.1594942298853734e+00 -2.6495393270136704e-02 0.0000000000000000e+00  1.1315317069850606e+00 -1.2275854812942187e-03 0.0000000000000000e+00  1.1309178309809833e+00 -5.9307056632612174e-05 0.0000000000000000e+00  1.1311995963944044e+00 -3.7797769090710243e-05 0.0000000000000000e+00  -7.5064540443220848e-02 -4.4883653457455611e-02 0.0000000000000000e+00  1.1311609184225051e+00 -3.9850734987950248e-05 0.0000000000000000e+00  2.6523868860948443e-07 1.1175329934000409e-08 0.0000000000000000e+00  -9.5321438070642622e-07 -1.3139686186094491e-08 0.0000000000000000e+00  1.1300108305517573e+00 -1.9500399415046752e-05 0.0000000000000000e+00  1.2864404272944891e-07 9.8625556835588847e-08 0.0000000000000000e+00  2.9982502330638307e-06 -2.2561294843267880e-07 0.0000000000000000e+00  -6.0114529811687903e-06 1.3028769206929427e-11 0.0000000000000000e+00  1.1310894379605834e+00 3.9469243087975514e-05 0.0000000000000000e+00  -8.7524254272305533e-08 -8.5551209273088286e-09 0.0000000000000000e+00  -4.1049264720856373e-06 -3.6773282498452676e-09 0.0000000000000000e+00  1.1012236634691052e-06 1.7019596692252099e-08 0.0000000000000000e+00  1.1376989160318614e+00 4.5949345149289673e-04 0.0000000000000000e+00  -1.7970992821073409e-06 -1.1371279433716432e-08 0.0000000000000000e+00  2.3966116229338454e-06 -4.2777393820491707e-09 0.0000000000000000e+00  -5.9586391230351550e-06 -2.2138074008215597e-08 0.0000000000000000e+00  -1.5014993373202986e-05 5.4494795455972886e-07 0.0000000000000000e+00  -3.9880789894387384e-06 5.9468053820649300e-07 0.0000000000000000e+00  -5.3151532514369202e-06 -5.6442504024843798e-07 0.0000000000000000e+00  2.8838697726915589e-07 1.1838453515093416e-08 0.0000000000000000e+00  1.1309140224527570e+00 -2.7567761807662823e-04 0.0000000000000000e+00  -1.5566723413159935e-06 1.2738520168776802e-09 0.0000000000000000e+00  1.1313405756048363e+00 4.6799986556866032e-06 0.0000000000000000e+00  1.1311974198466994e+00 -1.0209739159089489e-04 0.0000000000000000e+00  1.1309814720794675e+00 1.0333757867203353e-04 0.0000000000000000e+00  1.1297974560813198e+00 -6.4374212378220975e-03 0.0000000000000000e+00  1.1310676994516451e+00 -2.9016589857911546e-05 0.0000000000000000e+00  1.9896238249158211e+00 -1.5597095965321095e-01 0.0000000000000000e+00  1.1311318304117108e+00 -9.9495219848758036e-05 0.0000000000000000e+00  1.1312056416065104e+00 -1.4117211233220971e-04 0.0000000000000000e+00  1.1297428518788970e+00 1.5754426295709672e-05 0.0000000000000000e+00  1.1825513426082821e+00 7.7386446630374098e-02 0.0000000000000000e+00  1.1419782095392426e+00 -1.1383637777219148e-01 0.0000000000000000e+00  1.6533353160733641e+00 1.9173801789006659e-01 0.0000000000000000e+00  1.1249990192683483e+00 -1.9107621514581711e-07 0.0000000000000000e+00  1.1249901544106589e+00 2.4100647961313814e-07 0.0000000000000000e+00  1.1310897139565221e+00 -4.5287830987806224e-05 0.0000000000000000e+00  1.4893804156719943e+00 3.3346716572498780e-01 0.0000000000000000e+00  9.8542837652594517e-01 -1.1582556084251402e-02 0.0000000000000000e+00  1.4242326425720964e+00 -2.2009004864750020e-01 0.0000000000000000e+00  1.1477608983395309e+00 2.9130988495789188e-02 0.0000000000000000e+00  1.1248377666013771e+00 3.3417626720198553e-06 0.0000000000000000e+00  1.1303474000147871e+00 -4.5748309605112384e-05 0.0000000000000000e+00  1.1306080953197264e+00 1.1510094172191648e-04 0.0000000000000000e+00  1.1068075056730282e+00 -2.4170080064500776e-02 0.0000000000000000e+00  1.1231330722311150e+00 3.5916566749934736e-05 0.0000000000000000e+00  1.1311084508087634e+00 3.3648767077966885e-04 0.0000000000000000e+00  1.1295913195305549e+00 -1.4283011826580012e-06 0.0000000000000000e+00  1.1295246517507265e+00 -2.0733599210545010e-04 0.0000000000000000e+00  1.1302715353911512e+00 -1.3771717386081782e-04 0.0000000000000000e+00  1.1298129357985893e+00 -2.1394030670598019e-04 0.0000000000000000e+00  1.1302863203834004e+00 2.4273288113144588e-05 0.0000000000000000e+00  1.1302316698679145e+00 1.4308720049638425e-04 0.0000000000000000e+00  1.1296329826957190e+00 -7.1743631184653320e-04 0.0000000000000000e+00  1.1154836172185203e+00 7.8586669115681247e-05 0.0000000000000000e+00  1.1152882188596043e+00 -2.1761003631713379e-05 0.0000000000000000e+00  1.1312022058126412e+00 -1.2371926043804216e-05 0.0000000000000000e+00  1.1917520913385493e+00 2.6076579850357112e-01 0.0000000000000000e+00  1.1306696047285905e+00 2.6914460242095100e-05 0.0000000000000000e+00  -6.0860111393712357e-01 -2.9348878804692505e-02 0.0000000000000000e+00  1.1390038052068547e+00 -1.4935817202615848e-02 0.0000000000000000e+00  1.1313856468843144e+00 -4.0304150830252998e-04 0.0000000000000000e+00  1.4078955761672138e+00 2.2541825338313440e-01 0.0000000000000000e+00  1.1309935333148993e+00 -2.3677887217192021e-05 0.0000000000000000e+00  1.8797593472975058e+00 -1.1066427286128405e-01 0.0000000000000000e+00  1.1365560798016825e+00 -2.4282834945248494e-01 0.0000000000000000e+00  -5.6914940478056314e-07 1.1796489829092699e-08 0.0000000000000000e+00  1.1029840593127633e+00 7.4020070854152568e-05 0.0000000000000000e+00  -1.9458813770349570e-06 -2.6172417730520824e-09 0.0000000000000000e+00  -6.7904155401364878e-06 3.2714464725274635e-08 0.0000000000000000e+00  1.1313288776164026e+00 4.0555278530931467e-05 0.0000000000000000e+00  1.1555616770490197e-06 -4.2975930069035033e-07 0.0000000000000000e+00  1.1147015407353218e+00 -7.9971532235238857e-05 0.0000000000000000e+00  -2.7291927884995645e-06 -2.7855148358803025e-09 0.0000000000000000e+00  -2.0821712982574421e-06 4.4983457361577820e-09 0.0000000000000000e+00  1.1194371358286799e+00 1.6804845826963002e-04 0.0000000000000000e+00  -1.8264734800598460e-06 1.8768385386976593e-07 0.0000000000000000e+00  1.6688534076812258e+00 -4.5346880764844849e-01 0.0000000000000000e+00  1.5143606792475721e+00 -2.8028185265564537e-01 0.0000000000000000e+00  1.1303310756905978e+00 -2.2805975967118996e-03 0.0000000000000000e+00  1.3345315930909687e+00 -9.4978469350210357e-02 0.0000000000000000e+00  1.4582722269659887e+00 -2.3988642269528412e-01 0.0000000000000000e+00  1.3747614009982809e+00 1.3468348043859599e-01 0.0000000000000000e+00  1.3297846504222142e+00 3.5483402592574198e-01 0.0000000000000000e+00  1.1310846750957808e+00 8.2675341032104321e-05 0.0000000000000000e+00  1.1145282318182281e+00 -1.6224742837254040e-04 0.0000000000000000e+00  -5.7238098252103078e-07 -5.5287680622490418e-09 0.0000000000000000e+00  1.1145653109489964e+00 2.4035812508844145e-03 0.0000000000000000e+00  1.1332487364716413e+00 -2.8184351535282103e-03 0.0000000000000000e+00  1.1312003082791946e+00 6.3611743879949200e-05 0.0000000000000000e+00  1.1309074847981422e+00 -1.3090699212481511e-04 0.0000000000000000e+00  1.1152789839859112e+00 -9.6473185564930402e-05 0.0000000000000000e+00  -3.0735188544610768e-06 1.4924729857428767e-08 0.0000000000000000e+00  1.1310080736581332e+00 -2.9461752964150660e-05 0.0000000000000000e+00  1.1146862575400116e+00 -2.1698192635658802e-04 0.0000000000000000e+00  1.6630162604199712e+00 6.1035536367181883e-02 0.0000000000000000e+00  1.1310594627295962e+00 -5.6298424739559972e-05 0.0000000000000000e+00  1.1309539379104663e+00 -7.0086453228097607e-04 0.0000000000000000e+00  -3.2744862965114444e-06 6.0025628523515765e-09 0.0000000000000000e+00  -1.3386683513858718e-05 -1.4499380343062283e-08 0.0000000000000000e+00  1.1504603192344744e+00 -2.3554455342926404e-03 0.0000000000000000e+00  1.1519480884592541e+00 -5.6135656354783098e-02 0.0000000000000000e+00  1.4627081003025320e+00 -2.1501789747582384e-01 0.0000000000000000e+00  1.1318426590984418e+00 -3.9483474369039989e-04 0.0000000000000000e+00  -3.1119936524676268e-06 -3.2672033647608488e-07 0.0000000000000000e+00  6.5625069288231586e-01 -5.9522467129975930e-08 0.0000000000000000e+00  1.0864804013425222e+00 -8.6904640123928914e-04 0.0000000000000000e+00  1.2187371915122378e+00 -5.0504526504407357e-02 0.0000000000000000e+00  1.2163728716284459e+00 8.0200017842318672e-02 0.0000000000000000e+00  -4.9563223357841879e-06 2.3835018324413173e-09 0.0000000000000000e+00  1.1115075695329901e+00 3.1511861566738125e-04 0.0000000000000000e+00  1.1312339274667831e+00 -7.3580789001128595e-06 0.0000000000000000e+00  -3.5935509712059805e-06 1.8176190821283435e-08 0.0000000000000000e+00  -1.0467309158492270e-05 6.8918013229461516e-09 0.0000000000000000e+00  -4.4361254982618439e-06 -3.8451601185470464e-08 0.0000000000000000e+00  1.6150086389651847e-06 8.7713547555090934e-09 0.0000000000000000e+00  -2.3535799475806572e-06 8.6906545756862375e-09 0.0000000000000000e+00  -2.9399009072575904e-06 -7.4323147200361224e-08 0.0000000000000000e+00  9.5006008674019908e-07 -2.2600986319416724e-08 0.0000000000000000e+00  1.3254400379362946e-05 -1.3408341818224871e-06 0.0000000000000000e+00  8.0110246229028056e-06 -6.8470670735670131e-07 0.0000000000000000e+00  2.1184179679300985e-06 9.0754433534440253e-07 0.0000000000000000e+00  -3.1312387667506990e-06 -3.8306782242650580e-07 0.0000000000000000e+00  9.3771053853747315e-07 1.1068683638208783e-07 0.0000000000000000e+00  -2.1127858942687934e-07 2.5556795933115779e-09 0.0000000000000000e+00  -1.5914014445603249e-05 2.1838426646739400e-06 0.0000000000000000e+00  -1.1797639094931506e-05 -1.3221943183149486e-06 0.0000000000000000e+00  -8.7905622496040174e-07 -1.5012101939096235e-09 0.0000000000000000e+00  -7.5501422233601443e-06 -1.2244228684245437e-08 0.0000000000000000e+00  -2.1246430495662582e-06 -1.0175939402246393e-08 0.0000000000000000e+00  -6.3283076452477873e-07 8.1216931098411841e-09 0.0000000000000000e+00  1.0816376570156434e+00 1.0755855286950974e-04 0.0000000000000000e+00  1.0825483756200049e+00 9.8800723195587985e-05 0.0000000000000000e+00  1.0986327842507637e+00 8.8600243026111631e-05 0.0000000000000000e+00  1.1097773419382306e+00 -2.3934698029382635e-04 0.0000000000000000e+00  1.1312915229371097e+00 6.4339953960791947e-05 0.0000000000000000e+00  1.1309621561367555e+00 -2.2000169778183238e-05 0.0000000000000000e+00  1.0952788649754712e+00 -6.3244860508977806e-03 0.0000000000000000e+00  1.0695543367890277e+00 -3.1230930256940819e-05 0.0000000000000000e+00  -3.7053768691426270e-01 2.7050757928634518e-02 0.0000000000000000e+00  1.5450674948928180e+00 1.7627589397458104e-01 0.0000000000000000e+00  3.2273370925690625e-01 -1.6417921531926338e-01 0.0000000000000000e+00  1.1311195234338483e+00 -3.4415048535937166e-05 0.0000000000000000e+00  1.1312178595876643e+00 -4.0666378604480469e-05 0.0000000000000000e+00  1.1313081602950921e+00 -7.6370037459056055e-05 0.0000000000000000e+00  1.1312151280006248e+00 -4.8068737991589851e-05 0.0000000000000000e+00  1.0804719613540885e+00 -2.6761368279604583e-05 0.0000000000000000e+00  1.0982604521819501e+00 -3.1256613680113673e-04 0.0000000000000000e+00  1.0701771344024604e+00 1.7540961571844502e-04 0.0000000000000000e+00  1.1288628940852379e+00 -6.2165345670600649e-05 0.0000000000000000e+00  1.1327289433250478e+00 9.3908429157106652e-03 0.0000000000000000e+00  1.0391204046895481e+00 -5.3848550242737603e-02 0.0000000000000000e+00  7.6619788655889254e-01 6.6555943035408280e-02 0.0000000000000000e+00  1.1311803518230350e+00 3.0404581087786703e-05 0.0000000000000000e+00  1.1308916596618721e+00 -4.1951110821474392e-05 0.0000000000000000e+00  1.1311585822187642e+00 1.4348879396241416e-05 0.0000000000000000e+00  1.1022212647817391e+00 5.2455212372570286e-05 0.0000000000000000e+00  1.1312814219634264e+00 8.7287546552724377e-05 0.0000000000000000e+00  1.1310613948995181e+00 -5.0685368141028092e-05 0.0000000000000000e+00  1.0907540402252534e+00 -1.3017642135704964e-04 0.0000000000000000e+00  1.1311031091279753e+00 6.5434194549979602e-06 0.0000000000000000e+00  1.0844160704648584e+00 1.3016341257248909e-04 0.0000000000000000e+00  1.2217557052860744e+00 5.2198242289285324e-02 0.0000000000000000e+00  6.5624824022132289e-01 -1.5851958625336868e-07 0.0000000000000000e+00  9.4859141782261924e-01 6.2257668711567737e-02 0.0000000000000000e+00  1.2165305751850775e+00 -4.7688000459336279e-02 0.0000000000000000e+00  1.7899297290878886e+00 5.0445957044480327e-01 0.0000000000000000e+00  1.0479641916476434e+00 1.4951830568996741e-05 0.0000000000000000e+00  1.1349885911024860e+00 -6.6718010392362781e-03 0.0000000000000000e+00  1.1309691363484589e+00 -2.9662358423107588e-04 0.0000000000000000e+00  1.1309945373465435e+00 9.5667537386289975e-06 0.0000000000000000e+00  1.1310499635220317e+00 -1.2361927008114970e-05 0.0000000000000000e+00  1.1310855228057335e+00 -1.0698340264749407e-04 0.0000000000000000e+00  1.0923252637088403e+00 1.7096805923366679e-01 0.0000000000000000e+00  7.9878874107013176e-01 4.9342271144250514e-02 0.0000000000000000e+00  8.2504512201649738e-01 -8.0133610028317107e-02 0.0000000000000000e+00  1.1312692581803514e+00 -5.2302955506517401e-06 0.0000000000000000e+00  1.1309392336310677e+00 -5.7598071100624371e-05 0.0000000000000000e+00  1.3449286282613002e+00 -5.0184279666262460e-02 0.0000000000000000e+00  1.1309981052151830e+00 -3.9849182790975380e-06 0.0000000000000000e+00  8.1622181494916701e-01 -3.2758354887240229e-02 0.0000000000000000e+00  1.0604850782182613e+00 3.7296044543856915e-04 0.0000000000000000e+00  9.6417602574743000e-01 2.3958764919696458e-02 0.0000000000000000e+00  9.4285942909648757e-01 9.6772003690366648e-02 0.0000000000000000e+00  7.7573513288317597e-01 4.9279198527461689e-02 0.0000000000000000e+00  1.3353576493667130e+00 8.2750759603601232e-02 0.0000000000000000e+00  1.1312205253840366e+00 1.3301361270997951e-04 0.0000000000000000e+00  1.1338200424083595e+00 -3.7491113926287626e-04 0.0000000000000000e+00  1.2254995460723304e+00 1.8400038722848397e-01 0.0000000000000000e+00  1.0846665393663599e+00 2.2881041761866965e-05 0.0000000000000000e+00  1.1232857606604916e+00 -1.5265953976882719e-04 0.0000000000000000e+00  1.1310812357044566e+00 -9.5124833171082506e-05 0.0000000000000000e+00  1.1311180536323990e+00 -1.7842342242197187e-04 0.0000000000000000e+00  1.4040981320182269e+00 2.6014987168861962e-02 0.0000000000000000e+00  1.1309980187750501e+00 1.1594169495229410e-04 0.0000000000000000e+00  1.1310651081993619e+00 1.0134292218047087e-05 0.0000000000000000e+00  1.1310243167290555e+00 7.1054025659388628e-06 0.0000000000000000e+00  1.1306821115064067e+00 -4.7484386469167901e-04 0.0000000000000000e+00  9.8667444047057373e-01 -4.8174753136769661e-05 0.0000000000000000e+00  9.8638734090892588e-01 -2.9043336797661526e-04 0.0000000000000000e+00  1.0328252276851533e+00 -5.5449300688373596e-04 0.0000000000000000e+00  1.0654307488713315e+00 -1.6640661411365914e-04 0.0000000000000000e+00  1.0860509168328061e+00 2.0629165321195330e-04 0.0000000000000000e+00  1.1309791227492276e+00 -5.6314489963004146e-05 0.0000000000000000e+00  1.0187973149036005e+00 -2.4329650097389963e-05 0.0000000000000000e+00  1.1312873063770961e+00 3.1703291883088254e-05 0.0000000000000000e+00  1.1310805188186541e+00 3.0292607135931611e-06 0.0000000000000000e+00  1.3374465848781778e+00 -9.2730576015382288e-02 0.0000000000000000e+00  1.1311972450399277e+00 -3.6072161884267035e-05 0.0000000000000000e+00  1.1311154179870424e+00 -5.1948742804636381e-05 0.0000000000000000e+00  1.1285370966705219e+00 -1.3844979307742821e-02 0.0000000000000000e+00  9.3884511507222201e-01 -7.4924130336410762e-05 0.0000000000000000e+00  1.1289217602157158e+00 -1.0196108217977609e-04 0.0000000000000000e+00  1.4736897535587561e+00 -4.0728617693448843e-01 0.0000000000000000e+00  1.0518255278694952e+00 1.6220188110342129e-04 0.0000000000000000e+00  7.3674459525092884e-01 -7.5988305028474423e-02 0.0000000000000000e+00  1.4318389042057769e+00 -6.6417812888232605e-02 0.0000000000000000e+00  1.0458519853502364e+00 7.6839747686740557e-04 0.0000000000000000e+00  9.7975395061641979e-01 -3.9291554441472755e-05 0.0000000000000000e+00  1.5436650609697318e+00 4.7682538637774630e-01 0.0000000000000000e+00  1.0119309405410157e+00 1.8110219007514572e-01 0.0000000000000000e+00  1.0312281940373063e+00 2.7303497163020616e-04 0.0000000000000000e+00  1.9268226525302075e+00 2.3992703905529189e-01 0.0000000000000000e+00  1.4492979278383815e+00 -5.0548583846339878e-01 0.0000000000000000e+00  9.7049343690851919e-01 -1.8911475337968453e-01 0.0000000000000000e+00  1.0270306394532189e+00 -1.5515683503745338e-03 0.0000000000000000e+00  9.4931142233297516e-01 -8.9461192182548388e-02 0.0000000000000000e+00  1.0144653457543771e+00 8.3112694085525572e-06 0.0000000000000000e+00  1.0468503073788284e+00 1.1100717223294908e-04 0.0000000000000000e+00  1.1308597574305399e+00 -4.2523267211583026e-05 0.0000000000000000e+00  5.3515200333111113e-01 3.3904845548401341e-02 0.0000000000000000e+00  1.4062434831415191e+00 -3.7746849683530980e-07 0.0000000000000000e+00  1.1312275169548220e+00 4.5029111616100177e-05 0.0000000000000000e+00  1.0323839285480396e+00 -6.5828409097111733e-04 0.0000000000000000e+00  1.4062430673791610e+00 -1.7160701569424854e-07 0.0000000000000000e+00  1.0320324419616256e+00 1.4782996493212348e-05 0.0000000000000000e+00  1.1307184156996577e+00 -1.2179179674976222e-03 0.0000000000000000e+00  1.1437338380903317e+00 5.4992912494623521e-02 0.0000000000000000e+00  1.1311162799021599e+00 -1.3139986897961394e-05 0.0000000000000000e+00  7.1798018502433358e-01 1.0084800805852294e-01 0.0000000000000000e+00  1.1311017673073822e+00 -2.3223483926887790e-05 0.0000000000000000e+00  1.0155292719077380e+00 -1.9968217756055045e-04 0.0000000000000000e+00  9.9869240653019975e-01 4.1184188200110959e-03 0.0000000000000000e+00  8.8990424737639073e-01 1.3542982364563328e-04 0.0000000000000000e+00  1.1307373465423056e+00 5.8535961676805979e-05 0.0000000000000000e+00  8.9062313794972148e-01 3.7197224876633804e-05 0.0000000000000000e+00  9.84619847