<?xml version="1.0"?>
<VTKFile type="UnstructuredGrid"  version="0.1"  >
<UnstructuredGrid>
<Piece  NumberOfPoints="2446" NumberOfCells="4585">
<Points>
<DataArray  type="Float64"  NumberOfComponents="3"  format="ascii">0 0.41 0  0 0 0  2.2 0 0  2.2 0.41 0  0.2404508497187474 0.2293892626146237 0  0.25 0.2 0  0.2404508497187474 0.1706107373853764 0  0.2154508497187474 0.1524471741852423 0  0.1845491502812526 0.1524471741852423 0  0.1595491502812526 0.1706107373853764 0  0.15 0.2 0  0.1595491502812526 0.2293892626146237 0  0.1845491502812527 0.2475528258147577 0  0.2154508497187474 0.2475528258147577 0  1.1 0 0  1.1 0.41 0  0 0.205 0  0.55 0 0  0.55 0.41 0  0.275 0 0  0.275 0.41 0  1.65 0.41 0  1.65 0 0  0.8250000000000001 0.41 0  0.8250000000000001 0 0  1.375 0 0  1.375 0.41 0  1.925 0 0  1.925 0.41 0  1.5125 0.205 0  1.7875 0.205 0  0.6875 0.205 0  0.9625000000000001 0.205 0  1.2375 0.205 0  2.2 0.205 0  0.4687002074688797 0.2068568464730291 0  1.99375 0.2152743902439024 0  2.0625 0 0  2.0625 0.41 0  2.2 0.3075 0  0.4125 0 0  0.4125 0.41 0  1.7875 0.41 0  1.375 0.1486128048780488 0  1.5125 0 0  1.7875 0 0  1.5125 0.41 0  0.8250000000000001 0.2613871951219511 0  0.9625000000000001 0.41 0  0.9625000000000001 0 0  0.6875 0.41 0  0.6875 0 0  0.1375 0 0  0.1375 0.41 0  1.2375 0 0  1.1 0.1486128048780487 0  1.2375 0.41 0  1.65 0.1486128048780487 0  1.126715909090909 0.2793064024390244 0  1.676715909090909 0.2793064024390244 0  0.8517159090909092 0.1306935975609756 0  1.348284090909091 0.2793064024390244 0  0.34375 0.3032389320646208 0  1.894702181800738 0.1282910975492754 0  2.092797818199262 0.1282910975492754 0  1.85625 0.3075 0  0.61875 0.3075 0  0.61875 0.1025 0  0.3648540804333487 0.1240075933101478 0  0 0.3075 0  0 0.1025 0  2.099172119769978 0.25625 0  0.48125 0.09238439620688085 0  0.5781001037344399 0.2059284232365146 0  0.48125 0.3196743479159776 0  0.7265881057911006 0.3055240343720796 0  1.99375 0.08395950269330846 0  1.459960956013612 0.3075 0  1.569025960719943 0.2986889805672169 0  0.75625 0.08213100772579164 0  1.03125 0.3278689922742084 0  0.923871252904788 0.3078247185783941 0  1.959375 0.3126371951219512 0  1.749222215368287 0.1025 0  1.275777784631713 0.1025 0  2.2 0.1025 0  1.225938124459196 0.3075 0  1.550777784631713 0.1025 0  1.000777784631713 0.1025 0  1.44375 0.07430640243902442 0  1.16875 0.07430640243902437 0  1.899250267340833 0.2229966846119207 0  0.1020898364287272 0.3140258291809757 0  1.766482954545455 0.2934032012195123 0  0.3405058858996321 0.2119987970531874 0  0.7710785630958338 0.1710968191298857 0  1.046078563095834 0.2389031808701144 0  0.2 0.3400647632937836 0  1.421109702350723 0.2261157654379721 0  0.2800464974185557 0.08982544815605742 0  0.098916018031319 0.09171660955420841 0  2.13125 0 0  2.118919042110979 0.3422084711244843 0  1.30625 0.41 0  0.89375 0 0  1.597888256393107 0.2173787389261347 0  0.20625 0 0  1.829299675393195 0.07400700849299596 0  1.71875 0.41 0  1.16875 0.41 0  2.038220665644273 0.332420740103091 0  0.34375 0 0  0.417496017710808 0.2696595573092803 0  0.2 0.07687845740457822 0  0.9295982307099278 0.1343158415898188 0  0.07390688010811153 0.1697064032433452 0  0.5238366813727013 0.2578302467013575 0  0.05452951551825875 0.25625 0  0.5229630068078351 0.1548816096928243 0  1.452769549894695 0.1548122580621249 0  1.369219062229598 0.07430640243902442 0  1.30625 0 0  0.8504409521244898 0.3356935975609756 0  0.8821881244591965 0.205 0  1.720943423819132 0.1714577452753128 0  1.157188124459196 0.205 0  1.094219062229598 0.07430640243902437 0  1.03125 0 0  1.304056576180868 0.1714577452753128 0  1.67579304192913 0.07430640243902437 0  0.2751941921308361 0.3346083473122598 0  1.209670467133757 0.1362100266964769 0  1.025335513626278 0.1700681449722324 0  0.7562500000000001 0.41 0  1.58125 0 0  0.7567170593862014 0.2409196493502535 0  0.6926714215682891 0.1272249611432207 0  0.4139715849905988 0.3397932387114203 0  0.9840787304190477 0.2717749043358119 0  0.06875000000000001 0.41 0  0 0.35875 0  0.9281250000000001 0.06276726142697993 0  0.5507396469029935 0.3219409231578227 0  0.5504468037989405 0.09136885600634273 0  1.58125 0.41 0  1.631724228912893 0.3381867502687533 0  1.825608881788174 0.14499488549201 0  1.85625 0 0  1.44375 0 0  1.44375 0.41 0  1.85625 0.41 0  2.13125 0.41 0  0.7562500000000001 0 0  0.89375 0.41 0  0.4812500000000001 0 0  0.34375 0.41 0  0.4812500000000001 0.41 0  0.20625 0.41 0  0.06875000000000001 0 0  1.16875 0 0  0.61875 0 0  0.61875 0.41 0  1.03125 0.41 0  1.71875 0 0  1.99375 0 0  1.99375 0.41 0  1.340625 0.3489494290853124 0  1.134375 0.3489494290853123 0  1.700180620188976 0.3438659752031281 0  2.135782184673599 0.07126652247502523 0  1.668441847249787 0.2129203728327609 0  1.295782514339747 0.2378437748815763 0  0.8233075729931248 0.06842334294821524 0  1.409375 0.3520314716057996 0  0.403505597322782 0.182067236678212 0  0.378125 0.05794951541303489 0  0.3043468223249023 0.1518321115979534 0  2.129248544730567 0.1906135162504124 0  2.060771381434487 0.1989445750470348 0  2.013252586573865 0.1496169464686054 0  1.942766402200229 0.1734448904596831 0  1.895522487186454 0.06076163953489683 0  2.069553871656643 0.06605731020975725 0  1.274680914880868 0.3520219391081363 0  1.614713220494657 0.09473434380863296 0  0.7899021319497519 0.3149123934144827 0  0.69518737419149 0.0634051089053758 0  0.2971740475496061 0.2592172353407536 0  1.72990325744076 0.2380068107952482 0  1.356580098625191 0.2120393231351682 0  2.034370752044885 0.2668681600792073 0  1.51768709249349 0.3426260931494756 0  1.561883724969884 0.1650446847858835 0  1.197344062229598 0.2523725417393646 0  1.804085235518364 0.3468178408964637 0  1.817887819205233 0.2589243285818559 0  1.905897727272727 0.3485060975609756 0  0.6719798073392919 0.2688965171178177 0  0 0.05125 0  0.653125 0.35875 0  0.6396896119294488 0.1627615407790282 0  0.4274150154087412 0.1242548552168279 0  1.192836486056382 0.3562350748565544 0  0.8279124365364005 0.183856489168822 0  1.097485222388854 0.2083571153401724 0  1.28257088594801 0.2944411014911587 0  1.474860187679412 0.2504218616229368 0  1.406767003493824 0.2829282258560709 0  0.446875 0.04619219810344041 0  0.515625 0.04585361801037557 0  0.592043440706648 0.05125 0  1.845656689180403 0.1998310418452388 0  2.144958525570388 0.2909790873294231 0  0.6171090763650112 0.2492366900333857 0  2.2 0.15375 0  0.5145586920831158 0.3648371739579888 0  1.57794966442982 0.3540357145964566 0  0.721875 0.3633107922168974 0  0.0496154796471391 0.333125 0  0.5843750000000001 0.3662560860076676 0  0.5810878747760798 0.1474002776121195 0  1.508991196088596 0.1421783375065625 0  0.8840670607017558 0.2640994375393898 0  0.09776612425612034 0.2204896805326566 0  1.50436820029908 0.06143401634903343 0  1.223857000523521 0.0823554862453532 0  1.153316824384777 0.1289850171317837 0  2.148922302309752 0.1258841779285271 0  0.309375 0.04312325590431198 0  1.621993280276081 0.2841214267927899 0  1.550118654119087 0.2461998729100966 0  1.327182649291491 0.1216967252533594 0  1.051977450479407 0.1221382572915816 0  1.753125 0.04556020050186112 0  1.271875 0.04556020050186116 0  0.9816084133102366 0.05126138213476004 0  1.039051841454368 0.0572224914831029 0  0.9719230514536006 0.3480477870845102 0  1.94956388244759 0.1180512551534177 0  1.949997712993411 0.04965831614304109 0  1.771961817615021 0.1530278789497521 0  1.909246823951428 0.2812757146784527 0  0.2459536687882397 0.04668633953831142 0  1.948575539857022 0.2445328248721197 0  1.697271520964565 0.1233917627620729 0  0.7964897648514618 0.1211426571931604 0  1.065625 0.3689344961371042 0  1.085849084308977 0.3170853572226867 0  0.4702981435440001 0.260434880697798 0  1.577403511714593 0.05463601888079143 0  0.05622663515370135 0.05493816910862376 0  0.3267207591099919 0.3566194660323104 0  0.9003051618565143 0.3564049499960621 0  1.751571320346033 0.3651102912045228 0  0.1583785085108421 0.2994699345738728 0  0.1455283439499995 0.3542795598723423 0  2.2 0.35875 0  0.2347662494194072 0.298325008655211 0  0.1527284455616188 0.1065771775690181 0  0.1382139529076665 0.05427454456341477 0  0.8749341636311069 0.05110114999892954 0  0.643661668713109 0.05693499781019222 0  1.466879772203159 0.3611261772912453 0  1.990280163552011 0.3564754268533217 0  1.17471064520912 0.2990917256188288 0  0.5202693090594349 0.206382495511728 0  0 0.25625 0  2.2 0.25625 0  2.2 0.05125 0  0 0.15375 0  1.853978576207987 0.35875 0  0.9787513713939683 0.1487523696999336 0  0.240625 0.3722153812029779 0  1.515638456102889 0.2882700110184686 0  0.09048297387599738 0.3637717362208066 0  2.150453692751374 0.2387066338105111 0  1.323782677156475 0.04897634338873398 0  0.8074131292871642 0.3624701995505916 0  1.409375 0.03715320121951221 0  1.406484531114799 0.1087852750766809 0  1.134375 0.03715320121951218 0  1.627401732573545 0.04552157221025036 0  0.1170173172005315 0.1427610859166811 0  2.045405893604797 0.1105340662939892 0  1.255408269734577 0.1577307500159216 0  2.028125 0.03707597992059326 0  0.4743610090857199 0.1421513964721819 0  0.9354010469015898 0.250631300585664 0  0.04420832937638274 0.128125 0  0.8922386349349938 0.0992956419364831 0  0.1197849154434487 0.2663398672460083 0  1.248258025468107 0.2565907092181813 0  0.3746885856929528 0.370723531618974 0  1.203125 0.0366132337404304 0  0.5724622277005015 0.2751253816079333 0  0.3365425205162783 0.08395777655057959 0  2.072662025974815 0.2975086504196739 0  0.4581080832182547 0.3648371739579888 0  0.3874522734668214 0.2295447548840689 0  0.7827853612484443 0.04106550386289586 0  1.887722846421017 0.1760882698830035 0  1.472640588990488 0.1118278026240017 0  1.865937103925594 0.2604137786483804 0  1.463913572748262 0.2030442564990043 0  1.376426316059077 0.3186741374914345 0  0.6641993820150034 0.3141688596240831 0  0.2943117490824315 0.2130987422685822 0  0.3478153998082709 0.1666571081082676 0  0.3427990510599805 0.2575950027870776 0  0.7997118993855807 0.2216171933356366 0  
[...]
<PointData  Vectors="f_31"> 
<DataArray  type="Float64"  Name="f_31"  NumberOfComponents="3" format="ascii">2.1539268760170774e-06 5.4676267375837064e-08 0.0000000000000000e+00  -2.2823456356676913e-06 1.0471735565199748e-08 0.0000000000000000e+00  4.0079908932103364e-06 -9.0464647850441772e-09 0.0000000000000000e+00  -1.6712540102527195e-05 -2.6689688527074003e-08 0.0000000000000000e+00  -4.7164598407339114e-06 -4.2561920068001412e-07 0.0000000000000000e+00  -5.6256578105519057e-06 1.4635602869560539e-05 0.0000000000000000e+00  -5.6714247559861180e-06 6.7801478405598435e-06 0.0000000000000000e+00  -6.5768407723429140e-06 -1.3746642028953453e-06 0.0000000000000000e+00  -8.2725363033650442e-06 -3.1887061386611182e-06 0.0000000000000000e+00  -4.9588107289220748e-06 5.3398225042338611e-07 0.0000000000000000e+00  1.0919988006492116e-06 8.1689493697426883e-06 0.0000000000000000e+00  -4.9297655277629300e-06 -3.5730841733858868e-06 0.0000000000000000e+00  9.2468750446271703e-06 3.3487866250684539e-06 0.0000000000000000e+00  -1.3244340039820788e-05 -8.1820119737480875e-07 0.0000000000000000e+00  -2.5972017348533934e-06 -2.5658742011326156e-08 0.0000000000000000e+00  -2.3040852012003128e-07 -2.5083584628880023e-08 0.0000000000000000e+00  1.5000042761659598e+00 1.3339888636294158e-06 0.0000000000000000e+00  -1.7075148616412581e-05 7.7038031467855600e-07 0.0000000000000000e+00  -7.2892788055940758e-06 -4.2486553303248802e-07 0.0000000000000000e+00  4.5507765125622334e-06 2.6994478936210945e-07 0.0000000000000000e+00  -2.1582350787619734e-06 -1.4490973534266637e-07 0.0000000000000000e+00  2.8545929557515263e-07 -1.1799439192999916e-08 0.0000000000000000e+00  7.1076645234368859e-09 9.2159219115868792e-09 0.0000000000000000e+00  1.5985829241873685e-06 -3.3880519676175139e-08 0.0000000000000000e+00  -5.2803207990676388e-06 2.4411347793595274e-08 0.0000000000000000e+00  -3.9033137366954024e-06 5.1839310331646633e-09 0.0000000000000000e+00  -9.4934380138208166e-07 -3.6676781621941841e-08 0.0000000000000000e+00  -3.0412667191135991e-06 2.3932119921316566e-08 0.0000000000000000e+00  -2.4102173559787446e-06 -1.1852185895494005e-08 0.0000000000000000e+00  1.1173399789175036e+00 6.5031300948472924e-05 0.0000000000000000e+00  1.1173440783360580e+00 3.2931324496783245e-06 0.0000000000000000e+00  1.1244901670619514e+00 -8.4768483597443042e-03 0.0000000000000000e+00  1.1172323987940438e+00 -5.1574350551457533e-04 0.0000000000000000e+00  1.1169526124081761e+00 -4.6066904477448513e-05 0.0000000000000000e+00  1.1172288735283062e+00 4.6157852708309538e-06 0.0000000000000000e+00  4.1230914844502103e-01 -4.6933451217621165e-02 0.0000000000000000e+00  1.1171344124082769e+00 -1.7699910821472295e-05 0.0000000000000000e+00  1.1694150919210560e-07 2.1364393704743060e-08 0.0000000000000000e+00  -9.1497857777311337e-07 1.3848219905803062e-08 0.0000000000000000e+00  1.1167307910500233e+00 4.5873609867868572e-06 0.0000000000000000e+00  9.6896614322098063e-06 1.9723018735062242e-07 0.0000000000000000e+00  7.3484248779338658e-06 5.7586989954519110e-08 0.0000000000000000e+00  -6.2840665047127301e-06 -2.3279563576322319e-08 0.0000000000000000e+00  1.1171720611481915e+00 6.8726607392700798e-05 0.0000000000000000e+00  -4.0017003447297508e-07 -3.6083785865204109e-08 0.0000000000000000e+00  -4.3440933687075386e-06 1.7739592556927496e-08 0.0000000000000000e+00  8.8682077637129150e-07 3.5428530824832199e-09 0.0000000000000000e+00  1.1192462423485872e+00 -6.3795979129261488e-04 0.0000000000000000e+00  -1.9762361439427461e-06 1.6908279829898541e-08 0.0000000000000000e+00  2.3588556710488376e-06 -1.1384353303472954e-09 0.0000000000000000e+00  4.9418703686760764e-07 -6.2476070746586538e-08 0.0000000000000000e+00  -7.9482066013919383e-06 1.9661285658035166e-07 0.0000000000000000e+00  -4.7514638093874647e-06 7.3830468649762047e-07 0.0000000000000000e+00  -4.9487716173989066e-06 -7.2167246445566928e-07 0.0000000000000000e+00  3.1680565240771406e-07 1.1088261581881572e-08 0.0000000000000000e+00  1.1170435826629381e+00 -1.1493707391327509e-04 0.0000000000000000e+00  -1.8223516508499496e-06 -2.4471978953480698e-08 0.0000000000000000e+00  1.1172956079576948e+00 1.4630102824980851e-05 0.0000000000000000e+00  1.1171634313153560e+00 -3.8765325266046450e-05 0.0000000000000000e+00  1.1169921005808920e+00 3.0429921141365271e-05 0.0000000000000000e+00  1.1166951606384410e+00 -2.0839884886353433e-03 0.0000000000000000e+00  1.1171835872314684e+00 -5.6408435648449497e-05 0.0000000000000000e+00  1.9424564925550534e+00 -1.8560892419559638e-01 0.0000000000000000e+00  1.1172517447581740e+00 -8.4053456656018639e-05 0.0000000000000000e+00  1.1171901412848901e+00 -8.4067386708553546e-05 0.0000000000000000e+00  1.1165353811099317e+00 -2.3966002383406320e-06 0.0000000000000000e+00  1.1532786938308608e+00 1.5141375216368682e-02 0.0000000000000000e+00  1.1302800875225401e+00 -2.8663003329942729e-02 0.0000000000000000e+00  1.8022618744708596e+00 3.3977390738928687e-01 0.0000000000000000e+00  1.1249990408441086e+00 4.9245846225231358e-07 0.0000000000000000e+00  1.1249900926691929e+00 1.0043752885712930e-06 0.0000000000000000e+00  1.1171381372751705e+00 -4.8667737480245417e-05 0.0000000000000000e+00  1.2876498166300323e+00 1.5965593952995441e-01 0.0000000000000000e+00  1.0905425562808646e+00 -3.1570250415200639e-02 0.0000000000000000e+00  1.2989010996426789e+00 -1.1927561968564461e-01 0.0000000000000000e+00  1.1234593596659643e+00 3.5897719785772976e-03 0.0000000000000000e+00  1.1146684385975583e+00 -1.2163994038757753e-04 0.0000000000000000e+00  1.1170846505073362e+00 -8.6246699115015839e-05 0.0000000000000000e+00  1.1167927028696802e+00 2.1687855078522019e-04 0.0000000000000000e+00  1.1092765027536251e+00 -6.0612989575527547e-03 0.0000000000000000e+00  1.1133571949407601e+00 3.1735822144684963e-04 0.0000000000000000e+00  1.1172221728120728e+00 -4.1992831559883269e-05 0.0000000000000000e+00  1.1167161112278032e+00 1.7954603662992164e-04 0.0000000000000000e+00  1.1162860016314295e+00 -2.2959865375767754e-04 0.0000000000000000e+00  1.1169648270166539e+00 -8.2775202739376129e-05 0.0000000000000000e+00  1.1165762966882411e+00 -1.9402321608456643e-04 0.0000000000000000e+00  1.1169253414914129e+00 7.2248333630003239e-05 0.0000000000000000e+00  1.1169278260891657e+00 1.7087325546825675e-06 0.0000000000000000e+00  1.1167164483726375e+00 -3.0018155280968220e-04 0.0000000000000000e+00  1.1097262884903096e+00 1.4839662543005325e-04 0.0000000000000000e+00  1.1095029034250798e+00 -1.6074371455028670e-04 0.0000000000000000e+00  1.1172006947237862e+00 2.3343212421426653e-07 0.0000000000000000e+00  1.1897996980151413e+00 2.5665143718653555e-01 0.0000000000000000e+00  1.1169122255559614e+00 1.5808228295747359e-06 0.0000000000000000e+00  -7.1625313658837575e-01 -5.7524295964982396e-02 0.0000000000000000e+00  1.1187491512442216e+00 -4.6877425855677314e-03 0.0000000000000000e+00  1.1172921321171969e+00 -1.6275143223945382e-04 0.0000000000000000e+00  1.3992462110881796e+00 2.1657923242076754e-01 0.0000000000000000e+00  1.1170855637154389e+00 -1.0041188162116499e-05 0.0000000000000000e+00  1.8896739614262577e+00 -7.9246065069345215e-02 0.0000000000000000e+00  1.1384622491591379e+00 -2.4444319365192979e-01 0.0000000000000000e+00  -5.4698862158246404e-07 1.6581807844705870e-08 0.0000000000000000e+00  1.1022701871705798e+00 1.9036177770971935e-04 0.0000000000000000e+00  -2.0608271489870708e-06 3.0840174210224935e-08 0.0000000000000000e+00  -7.1293550151212560e-06 1.2073351686215723e-08 0.0000000000000000e+00  1.1173601753882680e+00 2.9734431541404326e-05 0.0000000000000000e+00  1.2374364322752495e-06 -3.0026107062005981e-07 0.0000000000000000e+00  1.1091015296656943e+00 -7.8995974794366400e-05 0.0000000000000000e+00  -3.1290586474381158e-06 1.4895880507302234e-08 0.0000000000000000e+00  -2.0896356569746427e-06 1.9785769515520403e-08 0.0000000000000000e+00  1.1118413048254090e+00 -5.2518675832560475e-05 0.0000000000000000e+00  3.1396238191810970e-06 3.7656633487778234e-07 0.0000000000000000e+00  1.6356850085119559e+00 -4.7482274886333392e-01 0.0000000000000000e+00  1.5194675067926893e+00 -2.7433558318474621e-01 0.0000000000000000e+00  1.1169094164396836e+00 -8.5610468556695748e-04 0.0000000000000000e+00  1.3353422983161563e+00 -9.8849517595239078e-02 0.0000000000000000e+00  1.2960204473349251e+00 -1.4651724396385452e-01 0.0000000000000000e+00  1.3743690857229431e+00 1.3178612297886574e-01 0.0000000000000000e+00  1.1973443998637252e+00 1.0140949488173003e-01 0.0000000000000000e+00  1.1171753009752936e+00 1.0403123138461583e-04 0.0000000000000000e+00  1.1087860307737141e+00 -9.8558713429585374e-05 0.0000000000000000e+00  -5.7947110611689492e-07 5.8838654858546888e-09 0.0000000000000000e+00  1.1096394167539578e+00 6.5200243026106110e-04 0.0000000000000000e+00  1.1176920997496420e+00 -1.1341504421738910e-03 0.0000000000000000e+00  1.1172297066248587e+00 5.1343383070995368e-05 0.0000000000000000e+00  1.1169916939816200e+00 -4.2646561049993056e-05 0.0000000000000000e+00  1.1099373178232008e+00 -1.1928454088226667e-04 0.0000000000000000e+00  -3.3189111207352257e-06 1.1030859659121371e-08 0.0000000000000000e+00  1.1170696769560342e+00 -5.8495484709206752e-06 0.0000000000000000e+00  1.1090314155968728e+00 1.2797480453178310e-05 0.0000000000000000e+00  1.6433614586971581e+00 4.5176334589773513e-02 0.0000000000000000e+00  1.1170846017423479e+00 -5.6793809155477922e-05 0.0000000000000000e+00  1.1170656595479727e+00 -2.7653899495175060e-04 0.0000000000000000e+00  -1.3156577643805775e-06 -4.8931751757808377e-08 0.0000000000000000e+00  -1.4017661295693291e-05 -3.0045382680437964e-09 0.0000000000000000e+00  1.1220539616032406e+00 -2.1494225743502503e-03 0.0000000000000000e+00  1.1191825920443368e+00 -1.2253423706928954e-02 0.0000000000000000e+00  1.3898421288271698e+00 -1.8140894306575184e-01 0.0000000000000000e+00  1.1175203880226088e+00 -2.1455616343887975e-04 0.0000000000000000e+00  -2.8739355261344191e-06 -2.6133559770053775e-07 0.0000000000000000e+00  6.5625072540104568e-01 2.1093615550761121e-07 0.0000000000000000e+00  1.0919425594350824e+00 -4.2909506299754224e-04 0.0000000000000000e+00  1.1590016325696064e+00 5.1658783682611918e-02 0.0000000000000000e+00  1.1450486065001244e+00 -6.3509514002689393e-02 0.0000000000000000e+00  -5.3761869058642300e-06 8.1837281190866831e-09 0.0000000000000000e+00  1.1073853052514842e+00 2.7353117691779008e-04 0.0000000000000000e+00  1.1172754520818842e+00 -2.6432786201675184e-05 0.0000000000000000e+00  -3.7536216438235758e-06 1.8885896988721635e-08 0.0000000000000000e+00  -1.0838469187480134e-05 1.8585982706898492e-08 0.0000000000000000e+00  -4.6514800262523426e-06 -9.4026947756380919e-09 0.0000000000000000e+00  1.5024217208290752e-06 2.2588143257987819e-08 0.0000000000000000e+00  -2.6889395376927547e-06 -1.9110375219439847e-08 0.0000000000000000e+00  -1.1323377378283992e-06 3.0246553633141193e-08 0.0000000000000000e+00  6.0368984968756773e-07 -8.0034246584205575e-09 0.0000000000000000e+00  6.4125464413269753e-06 1.5069458292987810e-06 0.0000000000000000e+00  8.8193918434337427e-06 -3.2045576588086153e-07 0.0000000000000000e+00  -8.4769047525962388e-07 -1.2895349036217224e-06 0.0000000000000000e+00  -2.8769494573833752e-06 -6.4240310827305360e-07 0.0000000000000000e+00  6.7818779059892396e-07 1.1385268999239618e-07 0.0000000000000000e+00  -4.1665835444782895e-07 1.9372140761230417e-08 0.0000000000000000e+00  -1.4631612175538231e-05 3.3352181240613641e-07 0.0000000000000000e+00  -1.1476632538601619e-05 -4.5068638978307481e-07 0.0000000000000000e+00  -9.1062889857322724e-07 -6.4822169425923464e-09 0.0000000000000000e+00  -7.7297412095882404e-06 -3.0864646275258892e-08 0.0000000000000000e+00  -2.2367146346066057e-06 -5.9719716868870612e-09 0.0000000000000000e+00  -8.4581575121705482e-07 -7.7673416673201925e-09 0.0000000000000000e+00  1.0873497747563228e+00 2.3297862879947248e-04 0.0000000000000000e+00  1.0889180739592306e+00 -7.7989446626706845e-06 0.0000000000000000e+00  1.0994382990573321e+00 -1.6773877638384994e-04 0.0000000000000000e+00  1.1062647074798089e+00 -7.8712418013930532e-05 0.0000000000000000e+00  1.1173375413935627e+00 5.2753954800159483e-05 0.0000000000000000e+00  1.1169957772956478e+00 -4.1065921917986173e-05 0.0000000000000000e+00  1.1001430717186094e+00 -2.2281588194921010e-03 0.0000000000000000e+00  1.0795622650070167e+00 -1.9083104114247154e-04 0.0000000000000000e+00  -1.5044975711230549e-01 2.5426188588718057e-01 0.0000000000000000e+00  1.4567407459163688e+00 1.9467324771364564e-01 0.0000000000000000e+00  4.4780979533536580e-01 -1.8696674769030769e-01 0.0000000000000000e+00  1.1171639359583851e+00 -1.9931075308708969e-05 0.0000000000000000e+00  1.1172298452119271e+00 -3.3107285797184353e-05 0.0000000000000000e+00  1.1172787536422701e+00 -6.6194159494954784e-05 0.0000000000000000e+00  1.1172245935572773e+00 -4.0706020195526437e-05 0.0000000000000000e+00  1.0872422656384113e+00 1.1795709562458741e-04 0.0000000000000000e+00  1.0990034709739154e+00 -3.1885721911714909e-04 0.0000000000000000e+00  1.0803234316621964e+00 -5.4045502367795910e-05 0.0000000000000000e+00  1.1160812674297631e+00 -1.5685999628978228e-04 0.0000000000000000e+00  1.1186699149199746e+00 1.3940395943692378e-03 0.0000000000000000e+00  1.0821599265896786e+00 -1.3203103379520527e-02 0.0000000000000000e+00  8.1734604057680238e-01 4.1301199106472890e-02 0.0000000000000000e+00  1.1172480967866758e+00 1.9657691609615628e-05 0.0000000000000000e+00  1.1169694906994854e+00 -3.0571853415378760e-05 0.0000000000000000e+00  1.1171982572484498e+00 -1.8631224397826735e-05 0.0000000000000000e+00  1.1016967045022830e+00 4.8602420670792345e-04 0.0000000000000000e+00  1.1173126606487043e+00 4.3236076325367512e-05 0.0000000000000000e+00  1.1170814271699370e+00 9.4606749992767074e-06 0.0000000000000000e+00  1.0944827441882365e+00 -2.1605784131947552e-05 0.0000000000000000e+00  1.1171820623613591e+00 1.7620744296355204e-05 0.0000000000000000e+00  1.0903971236005143e+00 4.2731376120518433e-05 0.0000000000000000e+00  1.1336201714027461e+00 -1.9711958822125480e-03 0.0000000000000000e+00  6.5624823625461404e-01 3.5121823949129807e-08 0.0000000000000000e+00  1.0383416664713832e+00 2.0392483574897150e-02 0.0000000000000000e+00  1.1236075657828264e+00 -1.3083994564736861e-02 0.0000000000000000e+00  1.6493069367405702e+00 5.4814941077177870e-01 0.0000000000000000e+00  1.0636684963765743e+00 2.9038015701250686e-04 0.0000000000000000e+00  1.1179337243442495e+00 -2.3681550948795736e-03 0.0000000000000000e+00  1.1170314344882222e+00 -1.2732446241600713e-04 0.0000000000000000e+00  1.1171235503670214e+00 -4.3036188978316136e-05 0.0000000000000000e+00  1.1171631619953386e+00 2.0603976074027460e-08 0.0000000000000000e+00  1.1171978144010564e+00 -9.8645697958898917e-05 0.0000000000000000e+00  1.0150052526266109e+00 9.3315696640328558e-02 0.0000000000000000e+00  9.2036064546991914e-01 -2.6733888132403641e-02 0.0000000000000000e+00  1.0026093978239783e+00 -4.7407566751908610e-02 0.0000000000000000e+00  1.1172588162655257e+00 -2.3489554378654573e-05 0.0000000000000000e+00  1.1171654139218992e+00 -1.5298184752652777e-05 0.0000000000000000e+00  1.1454466603357192e+00 -1.7575912026252669e-02 0.0000000000000000e+00  1.1170371761103790e+00 3.2831375368556216e-05 0.0000000000000000e+00  9.4659567947491663e-01 1.5080630125994648e-02 0.0000000000000000e+00  1.0731762510844036e+00 4.1080486402431164e-04 0.0000000000000000e+00  1.0161859928028563e+00 5.4020272108379775e-03 0.0000000000000000e+00  9.4243155244781174e-01 9.5502376343177681e-02 0.0000000000000000e+00  9.5088476166118063e-01 3.4718849460085764e-02 0.0000000000000000e+00  1.1471576518277591e+00 -4.6488805957656800e-03 0.0000000000000000e+00  1.1172917996309673e+00 1.1557687969916411e-04 0.0000000000000000e+00  1.1181072039191371e+00 -4.4905250917175676e-04 0.0000000000000000e+00  1.2250990283729875e+00 1.7707103688748099e-01 0.0000000000000000e+00  1.0908346257978694e+00 5.7442277888878883e-05 0.0000000000000000e+00  1.1136844437292459e+00 -4.0919731046953305e-05 0.0000000000000000e+00  1.1171815574667705e+00 -6.4220678761467407e-05 0.0000000000000000e+00  1.1171995303889053e+00 -1.0678238600290356e-04 0.0000000000000000e+00  1.3739858720595686e+00 4.9190215183444741e-02 0.0000000000000000e+00  1.1169681421226461e+00 9.0044082432847502e-05 0.0000000000000000e+00  1.1171185973104965e+00 4.4217314135574710e-05 0.0000000000000000e+00  1.1171597614520918e+00 4.7959475455842733e-05 0.0000000000000000e+00  1.1170219798232328e+00 -1.9135184032264960e-04 0.0000000000000000e+00  1.0137773054734791e+00 -3.8955501248176571e-04 0.0000000000000000e+00  1.0135917227005862e+00 -4.4467675040082093e-04 0.0000000000000000e+00  1.0526521297375742e+00 -4.5527758664500815e-04 0.0000000000000000e+00  1.0768053320179001e+00 9.4765229930227030e-05 0.0000000000000000e+00  1.0912903286558782e+00 1.2359625244916347e-05 0.0000000000000000e+00  1.1172230992677881e+00 -9.4286099941224646e-05 0.0000000000000000e+00  1.0396056154949425e+00 -4.5177713862959180e-04 0.0000000000000000e+00  1.1173209092282188e+00 -7.8436557331874884e-06 0.0000000000000000e+00  1.1172442073126423e+00 1.6214983614565216e-05 0.0000000000000000e+00  1.3331740264945093e+00 -8.1102589553397428e-02 0.0000000000000000e+00  1.1172224463868583e+00 6.4537494179773004e-06 0.0000000000000000e+00  1.1171859657050085e+00 1.3914846179866149e-05 0.0000000000000000e+00  1.1160333079894409e+00 -4.0101152033256036e-03 0.0000000000000000e+00  9.7225964949938715e-01 -1.2056127159781912e-05 0.0000000000000000e+00  1.1164058485162855e+00 3.7144679775926177e-06 0.0000000000000000e+00  1.4050692225912955e+00 -3.7740122856564073e-01 0.0000000000000000e+00  1.0659703473088751e+00 -2.8521151210713855e-04 0.0000000000000000e+00  7.3706315010123069e-01 -7.6405640503931685e-02 0.0000000000000000e+00  1.3974448719324748e+00 -7.3270552828047814e-02 0.0000000000000000e+00  1.0616649800979781e+00 2.8555872694915559e-04 0.0000000000000000e+00  1.0078992654112482e+00 -1.0273559468537448e-04 0.0000000000000000e+00  1.5396750263384371e+00 4.6893376680046689e-01 0.0000000000000000e+00  1.0070046458896691e+00 1.7701036032316492e-01 0.0000000000000000e+00  1.0506400291832161e+00 8.0672433548831157e-05 0.0000000000000000e+00  1.9207793922805310e+00 2.2345443942318358e-01 0.0000000000000000e+00  1.4557618236204666e+00 -5.0697778546440242e-01 0.0000000000000000e+00  9.7189069796900651e-01 -1.8872987151469503e-01 0.0000000000000000e+00  1.0483996078480526e+00 -7.7785328374419633e-04 0.0000000000000000e+00  1.0499614594422249e+00 -2.9257554246268143e-02 0.0000000000000000e+00  1.0371068307918538e+00 2.0106342151058381e-04 0.0000000000000000e+00  1.0625973489599334e+00 2.5011881746708764e-04 0.0000000000000000e+00  1.1171222631800235e+00 -9.1895722961477915e-06 0.0000000000000000e+00  9.2185626361664752e-01 -5.5558731527716405e-02 0.0000000000000000e+00  1.4062435171641090e+00 9.7764465042548767e-07 0.0000000000000000e+00  1.1172794190920341e+00 8.2152697453844673e-05 0.0000000000000000e+00  1.0514615395540041e+00 -8.0996781275397944e-04 0.0000000000000000e+00  1.4062429481233247e+00 1.1102879880013286e-06 0.0000000000000000e+00  1.0513056792216646e+00 -1.9951740238690184e-04 0.0000000000000000e+00  1.1169620566436227e+00 -4.6748195300528027e-04 0.0000000000000000e+00  1.1280406187731524e+00 4.7571731816033157e-02 0.0000000000000000e+00  1.1172391353622675e+00 7.8600293836982577e-05 0.0000000000000000e+00  7.1629191653555335e-01 9.9321281422256422e-02 0.0000000000000000e+00  1.1171454366679319e+00 1.2321294352340277e-05 0.0000000000000000e+00  1.0378013186869435e+00 -1.7015913853980690e-04 0.0000000000000000e+00  1.0273052926629471e+00 1.3991726096676685e-03 0.0000000000000000e+00  9.2791328737526269e-01 1.7246964109317813e-04 0.0000000000000000e+00  1.1171007167834521e+00 8.3360061869781814e-05 0.0000000000000000e+00  9.2882328385823087e-01 -2.6700974540921652e-04 0.0000000000000000e+00  1.01207379747835