<?xml version="1.0"?>
<VTKFile type="UnstructuredGrid"  version="0.1"  >
<UnstructuredGrid>
<Piece  NumberOfPoints="2446" NumberOfCells="4585">
<Points>
<DataArray  type="Float64"  NumberOfComponents="3"  format="ascii">0 0.41 0  0 0 0  2.2 0 0  2.2 0.41 0  0.2404508497187474 0.2293892626146237 0  0.25 0.2 0  0.2404508497187474 0.1706107373853764 0  0.2154508497187474 0.1524471741852423 0  0.1845491502812526 0.1524471741852423 0  0.1595491502812526 0.1706107373853764 0  0.15 0.2 0  0.1595491502812526 0.2293892626146237 0  0.1845491502812527 0.2475528258147577 0  0.2154508497187474 0.2475528258147577 0  1.1 0 0  1.1 0.41 0  0 0.205 0  0.55 0 0  0.55 0.41 0  0.275 0 0  0.275 0.41 0  1.65 0.41 0  1.65 0 0  0.8250000000000001 0.41 0  0.8250000000000001 0 0  1.375 0 0  1.375 0.41 0  1.925 0 0  1.925 0.41 0  1.5125 0.205 0  1.7875 0.205 0  0.6875 0.205 0  0.9625000000000001 0.205 0  1.2375 0.205 0  2.2 0.205 0  0.4687002074688797 0.2068568464730291 0  1.99375 0.2152743902439024 0  2.0625 0 0  2.0625 0.41 0  2.2 0.3075 0  0.4125 0 0  0.4125 0.41 0  1.7875 0.41 0  1.375 0.1486128048780488 0  1.5125 0 0  1.7875 0 0  1.5125 0.41 0  0.8250000000000001 0.2613871951219511 0  0.9625000000000001 0.41 0  0.9625000000000001 0 0  0.6875 0.41 0  0.6875 0 0  0.1375 0 0  0.1375 0.41 0  1.2375 0 0  1.1 0.1486128048780487 0  1.2375 0.41 0  1.65 0.1486128048780487 0  1.126715909090909 0.2793064024390244 0  1.676715909090909 0.2793064024390244 0  0.8517159090909092 0.1306935975609756 0  1.348284090909091 0.2793064024390244 0  0.34375 0.3032389320646208 0  1.894702181800738 0.1282910975492754 0  2.092797818199262 0.1282910975492754 0  1.85625 0.3075 0  0.61875 0.3075 0  0.61875 0.1025 0  0.3648540804333487 0.1240075933101478 0  0 0.3075 0  0 0.1025 0  2.099172119769978 0.25625 0  0.48125 0.09238439620688085 0  0.5781001037344399 0.2059284232365146 0  0.48125 0.3196743479159776 0  0.7265881057911006 0.3055240343720796 0  1.99375 0.08395950269330846 0  1.459960956013612 0.3075 0  1.569025960719943 0.2986889805672169 0  0.75625 0.08213100772579164 0  1.03125 0.3278689922742084 0  0.923871252904788 0.3078247185783941 0  1.959375 0.3126371951219512 0  1.749222215368287 0.1025 0  1.275777784631713 0.1025 0  2.2 0.1025 0  1.225938124459196 0.3075 0  1.550777784631713 0.1025 0  1.000777784631713 0.1025 0  1.44375 0.07430640243902442 0  1.16875 0.07430640243902437 0  1.899250267340833 0.2229966846119207 0  0.1020898364287272 0.3140258291809757 0  1.766482954545455 0.2934032012195123 0  0.3405058858996321 0.2119987970531874 0  0.7710785630958338 0.1710968191298857 0  1.046078563095834 0.2389031808701144 0  0.2 0.3400647632937836 0  1.421109702350723 0.2261157654379721 0  0.2800464974185557 0.08982544815605742 0  0.098916018031319 0.09171660955420841 0  2.13125 0 0  2.118919042110979 0.3422084711244843 0  1.30625 0.41 0  0.89375 0 0  1.597888256393107 0.2173787389261347 0  0.20625 0 0  1.829299675393195 0.07400700849299596 0  1.71875 0.41 0  1.16875 0.41 0  2.038220665644273 0.332420740103091 0  0.34375 0 0  0.417496017710808 0.2696595573092803 0  0.2 0.07687845740457822 0  0.9295982307099278 0.1343158415898188 0  0.07390688010811153 0.1697064032433452 0  0.5238366813727013 0.2578302467013575 0  0.05452951551825875 0.25625 0  0.5229630068078351 0.1548816096928243 0  1.452769549894695 0.1548122580621249 0  1.369219062229598 0.07430640243902442 0  1.30625 0 0  0.8504409521244898 0.3356935975609756 0  0.8821881244591965 0.205 0  1.720943423819132 0.1714577452753128 0  1.157188124459196 0.205 0  1.094219062229598 0.07430640243902437 0  1.03125 0 0  1.304056576180868 0.1714577452753128 0  1.67579304192913 0.07430640243902437 0  0.2751941921308361 0.3346083473122598 0  1.209670467133757 0.1362100266964769 0  1.025335513626278 0.1700681449722324 0  0.7562500000000001 0.41 0  1.58125 0 0  0.7567170593862014 0.2409196493502535 0  0.6926714215682891 0.1272249611432207 0  0.4139715849905988 0.3397932387114203 0  0.9840787304190477 0.2717749043358119 0  0.06875000000000001 0.41 0  0 0.35875 0  0.9281250000000001 0.06276726142697993 0  0.5507396469029935 0.3219409231578227 0  0.5504468037989405 0.09136885600634273 0  1.58125 0.41 0  1.631724228912893 0.3381867502687533 0  1.825608881788174 0.14499488549201 0  1.85625 0 0  1.44375 0 0  1.44375 0.41 0  1.85625 0.41 0  2.13125 0.41 0  0.7562500000000001 0 0  0.89375 0.41 0  0.4812500000000001 0 0  0.34375 0.41 0  0.4812500000000001 0.41 0  0.20625 0.41 0  0.06875000000000001 0 0  1.16875 0 0  0.61875 0 0  0.61875 0.41 0  1.03125 0.41 0  1.71875 0 0  1.99375 0 0  1.99375 0.41 0  1.340625 0.3489494290853124 0  1.134375 0.3489494290853123 0  1.700180620188976 0.3438659752031281 0  2.135782184673599 0.07126652247502523 0  1.668441847249787 0.2129203728327609 0  1.295782514339747 0.2378437748815763 0  0.8233075729931248 0.06842334294821524 0  1.409375 0.3520314716057996 0  0.403505597322782 0.182067236678212 0  0.378125 0.05794951541303489 0  0.3043468223249023 0.1518321115979534 0  2.129248544730567 0.1906135162504124 0  2.060771381434487 0.1989445750470348 0  2.013252586573865 0.1496169464686054 0  1.942766402200229 0.1734448904596831 0  1.895522487186454 0.06076163953489683 0  2.069553871656643 0.06605731020975725 0  1.274680914880868 0.3520219391081363 0  1.614713220494657 0.09473434380863296 0  0.7899021319497519 0.3149123934144827 0  0.69518737419149 0.0634051089053758 0  0.2971740475496061 0.2592172353407536 0  1.72990325744076 0.2380068107952482 0  1.356580098625191 0.2120393231351682 0  2.034370752044885 0.2668681600792073 0  1.51768709249349 0.3426260931494756 0  1.561883724969884 0.1650446847858835 0  1.197344062229598 0.2523725417393646 0  1.804085235518364 0.3468178408964637 0  1.817887819205233 0.2589243285818559 0  1.905897727272727 0.3485060975609756 0  0.6719798073392919 0.2688965171178177 0  0 0.05125 0  0.653125 0.35875 0  0.6396896119294488 0.1627615407790282 0  0.4274150154087412 0.1242548552168279 0  1.192836486056382 0.3562350748565544 0  0.8279124365364005 0.183856489168822 0  1.097485222388854 0.2083571153401724 0  1.28257088594801 0.2944411014911587 0  1.474860187679412 0.2504218616229368 0  1.406767003493824 0.2829282258560709 0  0.446875 0.04619219810344041 0  0.515625 0.04585361801037557 0  0.592043440706648 0.05125 0  1.845656689180403 0.1998310418452388 0  2.144958525570388 0.2909790873294231 0  0.6171090763650112 0.2492366900333857 0  2.2 0.15375 0  0.5145586920831158 0.3648371739579888 0  1.57794966442982 0.3540357145964566 0  0.721875 0.3633107922168974 0  0.0496154796471391 0.333125 0  0.5843750000000001 0.3662560860076676 0  0.5810878747760798 0.1474002776121195 0  1.508991196088596 0.1421783375065625 0  0.8840670607017558 0.2640994375393898 0  0.09776612425612034 0.2204896805326566 0  1.50436820029908 0.06143401634903343 0  1.223857000523521 0.0823554862453532 0  1.153316824384777 0.1289850171317837 0  2.148922302309752 0.1258841779285271 0  0.309375 0.04312325590431198 0  1.621993280276081 0.2841214267927899 0  1.550118654119087 0.2461998729100966 0  1.327182649291491 0.1216967252533594 0  1.051977450479407 0.1221382572915816 0  1.753125 0.04556020050186112 0  1.271875 0.04556020050186116 0  0.9816084133102366 0.05126138213476004 0  1.039051841454368 0.0572224914831029 0  0.9719230514536006 0.3480477870845102 0  1.94956388244759 0.1180512551534177 0  1.949997712993411 0.04965831614304109 0  1.771961817615021 0.1530278789497521 0  1.909246823951428 0.2812757146784527 0  0.2459536687882397 0.04668633953831142 0  1.948575539857022 0.2445328248721197 0  1.697271520964565 0.1233917627620729 0  0.7964897648514618 0.1211426571931604 0  1.065625 0.3689344961371042 0  1.085849084308977 0.3170853572226867 0  0.4702981435440001 0.260434880697798 0  1.577403511714593 0.05463601888079143 0  0.05622663515370135 0.05493816910862376 0  0.3267207591099919 0.3566194660323104 0  0.9003051618565143 0.3564049499960621 0  1.751571320346033 0.3651102912045228 0  0.1583785085108421 0.2994699345738728 0  0.1455283439499995 0.3542795598723423 0  2.2 0.35875 0  0.2347662494194072 0.298325008655211 0  0.1527284455616188 0.1065771775690181 0  0.1382139529076665 0.05427454456341477 0  0.8749341636311069 0.05110114999892954 0  0.643661668713109 0.05693499781019222 0  1.466879772203159 0.3611261772912453 0  1.990280163552011 0.3564754268533217 0  1.17471064520912 0.2990917256188288 0  0.5202693090594349 0.206382495511728 0  0 0.25625 0  2.2 0.25625 0  2.2 0.05125 0  0 0.15375 0  1.853978576207987 0.35875 0  0.9787513713939683 0.1487523696999336 0  0.240625 0.3722153812029779 0  1.515638456102889 0.2882700110184686 0  0.09048297387599738 0.3637717362208066 0  2.150453692751374 0.2387066338105111 0  1.323782677156475 0.04897634338873398 0  0.8074131292871642 0.3624701995505916 0  1.409375 0.03715320121951221 0  1.406484531114799 0.1087852750766809 0  1.134375 0.03715320121951218 0  1.627401732573545 0.04552157221025036 0  0.1170173172005315 0.1427610859166811 0  2.045405893604797 0.1105340662939892 0  1.255408269734577 0.1577307500159216 0  2.028125 0.03707597992059326 0  0.4743610090857199 0.1421513964721819 0  0.9354010469015898 0.250631300585664 0  0.04420832937638274 0.128125 0  0.8922386349349938 0.0992956419364831 0  0.1197849154434487 0.2663398672460083 0  1.248258025468107 0.2565907092181813 0  0.3746885856929528 0.370723531618974 0  1.203125 0.0366132337404304 0  0.5724622277005015 0.2751253816079333 0  0.3365425205162783 0.08395777655057959 0  2.072662025974815 0.2975086504196739 0  0.4581080832182547 0.3648371739579888 0  0.3874522734668214 0.2295447548840689 0  0.7827853612484443 0.04106550386289586 0  1.887722846421017 0.1760882698830035 0  1.472640588990488 0.1118278026240017 0  1.865937103925594 0.2604137786483804 0  1.463913572748262 0.2030442564990043 0  1.376426316059077 0.3186741374914345 0  0.6641993820150034 0.3141688596240831 0  0.2943117490824315 0.2130987422685822 0  0.3478153998082709 0.1666571081082676 0  0.3427990510599805 0.2575950027870776 0  0.7997118993855807 0.2216171933356366 0  
[...]
<PointData  Vectors="f_31"> 
<DataArray  type="Float64"  Name="f_31"  NumberOfComponents="3" format="ascii">8.7062964191742995e-05 9.0940152667623830e-05 0.0000000000000000e+00  6.3377412138452760e-05 -7.7347327096122760e-05 0.0000000000000000e+00  -5.5457881534057771e-06 -3.4726366354460726e-06 0.0000000000000000e+00  -3.2176900481357908e-05 1.4231156615238663e-05 0.0000000000000000e+00  3.3594920419852852e-04 7.4544832497491946e-05 0.0000000000000000e+00  4.0028178258110242e-05 3.1939855580868211e-05 0.0000000000000000e+00  8.8134419260136896e-05 -2.5238125122575283e-05 0.0000000000000000e+00  9.9037410141830865e-05 -1.6097201664438650e-04 0.0000000000000000e+00  -5.6367917758231930e-05 -1.2036208015836746e-04 0.0000000000000000e+00  3.3211998073411967e-05 -3.9854010516277805e-05 0.0000000000000000e+00  -4.9731070174168802e-06 1.5768619905600182e-05 0.0000000000000000e+00  3.7525704672863427e-05 5.4065825938972541e-05 0.0000000000000000e+00  -3.7929167789604905e-05 5.1512541620004560e-05 0.0000000000000000e+00  3.8075193599558548e-05 9.0493513439151535e-05 0.0000000000000000e+00  -1.0270294574595321e-05 -3.1865391070214651e-06 0.0000000000000000e+00  -8.1407765013826262e-06 -1.8635964420795273e-06 0.0000000000000000e+00  1.5000167278482543e+00 5.7199067640288318e-06 0.0000000000000000e+00  -1.1516954456366084e-05 1.0542357639896383e-05 0.0000000000000000e+00  4.0887442918899836e-07 5.1785209339080262e-06 0.0000000000000000e+00  1.0337729403861115e-05 3.4871753289120001e-06 0.0000000000000000e+00  -5.7593951221255669e-06 6.3423096578968665e-06 0.0000000000000000e+00  -1.3816809404035974e-06 -3.0922031993512020e-06 0.0000000000000000e+00  4.8775554236044286e-06 3.6336298634924618e-06 0.0000000000000000e+00  -4.2562013339795797e-07 5.6996797767435511e-06 0.0000000000000000e+00  -9.0558142989394220e-07 -2.7437527448907276e-06 0.0000000000000000e+00  -1.1457429559144449e-05 6.2701154777499812e-06 0.0000000000000000e+00  6.9729646993608140e-06 -1.7106378225027546e-05 0.0000000000000000e+00  -1.8433539675299029e-05 -8.5229543758325323e-06 0.0000000000000000e+00  -1.6284504055076268e-05 -6.2165691365087769e-06 0.0000000000000000e+00  1.0348453671905211e+00 5.8402472392292209e-05 0.0000000000000000e+00  1.0347408299689311e+00 -6.9739900407652983e-05 0.0000000000000000e+00  1.0342927743438248e+00 -4.5008996774342509e-04 0.0000000000000000e+00  1.0347097351558323e+00 -1.0821242499065173e-04 0.0000000000000000e+00  1.0347852700703515e+00 7.0259117460761935e-05 0.0000000000000000e+00  1.0359177427977790e+00 1.3681057574476892e-05 0.0000000000000000e+00  1.0208551072419509e+00 -3.1903151373721315e-03 0.0000000000000000e+00  1.0348523676349075e+00 -3.2860816839928319e-05 0.0000000000000000e+00  -1.2083360753957529e-06 -3.4649314521132235e-06 0.0000000000000000e+00  2.4149499408655896e-06 -4.1804451165189352e-06 0.0000000000000000e+00  1.0368199958415025e+00 -1.0429440781304922e-03 0.0000000000000000e+00  5.7769776963194596e-06 -1.9272122691114417e-05 0.0000000000000000e+00  -9.9943816024110333e-07 -3.9363287492814681e-06 0.0000000000000000e+00  -1.0861573293889523e-05 1.5210766891943934e-06 0.0000000000000000e+00  1.0347984240008086e+00 1.5136442384889768e-04 0.0000000000000000e+00  6.6279693520455345e-06 -1.3543061302739591e-06 0.0000000000000000e+00  -8.7345771860772581e-06 1.0556331661466861e-06 0.0000000000000000e+00  4.2278961616709794e-06 1.9697106468764951e-06 0.0000000000000000e+00  1.0347811783326741e+00 -1.8041641186518009e-04 0.0000000000000000e+00  -3.8186909785346841e-07 1.5779726951333807e-06 0.0000000000000000e+00  -9.5746649564702171e-06 3.3763595926314302e-07 0.0000000000000000e+00  8.9624884171579005e-06 -2.8134581454614639e-06 0.0000000000000000e+00  -1.8305250886484888e-05 -1.3434838480668813e-05 0.0000000000000000e+00  -1.0433928899229549e-05 6.6090137855519530e-06 0.0000000000000000e+00  -2.5811834702281856e-05 7.9374094740961999e-06 0.0000000000000000e+00  2.7751698304458080e-07 -4.4979087028202245e-06 0.0000000000000000e+00  1.0345998413298871e+00 -8.6835129302818294e-05 0.0000000000000000e+00  -6.1094940735174623e-06 5.5684493965345184e-06 0.0000000000000000e+00  1.0348706626487429e+00 -2.0395211846951016e-05 0.0000000000000000e+00  1.0346105705639652e+00 -1.6851493988432839e-04 0.0000000000000000e+00  1.0348093291933458e+00 6.0295951304052193e-05 0.0000000000000000e+00  1.0347854168677433e+00 -1.7128062037899441e-04 0.0000000000000000e+00  1.0348691391765086e+00 1.7392604647174437e-04 0.0000000000000000e+00  1.0646293797322794e+00 -9.5596969439048787e-02 0.0000000000000000e+00  1.0346579289498148e+00 -4.9218307479092862e-05 0.0000000000000000e+00  1.0349194886444346e+00 4.4403171412342679e-04 0.0000000000000000e+00  1.0345486395448418e+00 -2.0461289932844801e-05 0.0000000000000000e+00  1.0350985908612695e+00 -1.6061412194780433e-03 0.0000000000000000e+00  1.0334684675247319e+00 1.2949251324194548e-04 0.0000000000000000e+00  1.0196647322443035e+00 7.0799610828789286e-02 0.0000000000000000e+00  1.1250238811746047e+00 -1.7049106847652923e-05 0.0000000000000000e+00  1.1250033736466010e+00 3.9306135172049361e-06 0.0000000000000000e+00  1.0350221813890297e+00 -3.1457117921136112e-04 0.0000000000000000e+00  1.0353710417953961e+00 9.1368703178291797e-03 0.0000000000000000e+00  1.0323210579842215e+00 -1.1040239679753993e-03 0.0000000000000000e+00  1.0395679393370088e+00 -1.1908138802258167e-02 0.0000000000000000e+00  1.0350754231622772e+00 -5.4524554875899037e-04 0.0000000000000000e+00  1.0348749306205121e+00 7.7791488396021882e-05 0.0000000000000000e+00  1.0348367091212987e+00 -1.3813838391587977e-05 0.0000000000000000e+00  1.0345399244861917e+00 1.4589126272052241e-05 0.0000000000000000e+00  1.0343578838005261e+00 -6.5427539577242195e-04 0.0000000000000000e+00  1.0323720607375215e+00 1.0923132379079704e-03 0.0000000000000000e+00  1.0348732210217320e+00 -5.2755649888128090e-06 0.0000000000000000e+00  1.0350684416914833e+00 -1.0337870079191889e-04 0.0000000000000000e+00  1.0345151741454159e+00 -4.8189992966159807e-04 0.0000000000000000e+00  1.0348799723656263e+00 2.8723938500335272e-04 0.0000000000000000e+00  1.0368993529176351e+00 1.0562588834552181e-03 0.0000000000000000e+00  1.0351230389262995e+00 -2.3349160531678614e-05 0.0000000000000000e+00  1.0347496984856717e+00 -1.4973409985670813e-04 0.0000000000000000e+00  1.0347209564493856e+00 -8.1731069051503279e-05 0.0000000000000000e+00  1.0363176438674797e+00 3.2566595529552351e-04 0.0000000000000000e+00  1.0343417884778561e+00 2.0947388442269557e-04 0.0000000000000000e+00  1.0347126038011532e+00 -1.0467507098778382e-04 0.0000000000000000e+00  1.0880500544149676e+00 3.5774485765569836e-01 0.0000000000000000e+00  1.0346428757078909e+00 -8.7050601157920835e-05 0.0000000000000000e+00  9.0768807276395336e-01 -3.5450515603930352e-02 0.0000000000000000e+00  1.0346300369655017e+00 -1.3514220089070765e-04 0.0000000000000000e+00  1.0347204506027481e+00 -7.5924197266768228e-05 0.0000000000000000e+00  1.2897571782189063e+00 6.0552180660986207e-02 0.0000000000000000e+00  1.0348282762385927e+00 1.5251371954464596e-04 0.0000000000000000e+00  1.1872835159711672e+00 1.5978448023238107e-01 0.0000000000000000e+00  1.0655749841124897e+00 -3.6822893445509197e-01 0.0000000000000000e+00  8.2310071361400299e-06 -8.5134633727217199e-06 0.0000000000000000e+00  1.0337074893826694e+00 -9.3825762327427145e-04 0.0000000000000000e+00  1.0154524052593128e-05 9.2237654811986501e-07 0.0000000000000000e+00  -6.8197212126598416e-06 -3.3616098236148475e-06 0.0000000000000000e+00  1.0347931812489071e+00 -5.6131469147310464e-06 0.0000000000000000e+00  -6.4817509390318175e-06 2.5338765610897309e-06 0.0000000000000000e+00  1.0340616094797930e+00 -7.1478994144818446e-04 0.0000000000000000e+00  -9.9601430089742097e-06 7.5334855169206828e-06 0.0000000000000000e+00  6.3174799418488033e-06 -4.4050530779442041e-06 0.0000000000000000e+00  1.0342741883319861e+00 5.6011017936110296e-04 0.0000000000000000e+00  -3.4675039551313616e-06 8.4023421892423646e-07 0.0000000000000000e+00  1.0231893836173866e+00 -3.0907588678768735e-02 0.0000000000000000e+00  1.3502559784890120e+00 -4.9901767402004311e-02 0.0000000000000000e+00  1.0346720172949968e+00 -1.7097875415428949e-04 0.0000000000000000e+00  1.2103562685691254e+00 -2.4472178132056663e-01 0.0000000000000000e+00  1.0316413256565142e+00 -5.8128765754451479e-03 0.0000000000000000e+00  1.3189142717396189e+00 3.3899450173913231e-01 0.0000000000000000e+00  1.0299913503020455e+00 2.5998759126978441e-03 0.0000000000000000e+00  1.0348473813356345e+00 1.1380135154471939e-04 0.0000000000000000e+00  1.0321973540207521e+00 -2.4820361146504488e-03 0.0000000000000000e+00  -5.8559806848354194e-06 1.0215003322708629e-05 0.0000000000000000e+00  1.0347107488948724e+00 -3.2672221001544361e-04 0.0000000000000000e+00  1.0347865136711412e+00 -1.2300072830641974e-04 0.0000000000000000e+00  1.0347418670648332e+00 -3.2586579159161712e-05 0.0000000000000000e+00  1.0346673551561523e+00 -2.8067541562758794e-05 0.0000000000000000e+00  1.0347366565348868e+00 -7.3607967638176825e-04 0.0000000000000000e+00  -1.0249510198295246e-05 -3.1161380570117178e-06 0.0000000000000000e+00  1.0348272174730038e+00 1.7501810598661931e-04 0.0000000000000000e+00  1.0345623028663253e+00 -5.7510948948188566e-04 0.0000000000000000e+00  1.2077488366486357e+00 -9.7920861934795378e-02 0.0000000000000000e+00  1.0346402067973139e+00 1.4578869577465696e-04 0.0000000000000000e+00  1.0346707845744663e+00 -8.8978541508612366e-05 0.0000000000000000e+00  -5.4934285567759750e-06 -3.2291813421262299e-07 0.0000000000000000e+00  -8.7347604210507662e-06 2.8807056207093188e-06 0.0000000000000000e+00  1.0347455423061107e+00 -3.5921123089472409e-04 0.0000000000000000e+00  1.0343639528276363e+00 1.8782065137126128e-05 0.0000000000000000e+00  1.0558772387253852e+00 -2.4890790715440963e-02 0.0000000000000000e+00  1.0347289174020764e+00 -1.0474717200888994e-04 0.0000000000000000e+00  -7.0411942547518998e-05 9.7577318997480338e-06 0.0000000000000000e+00  6.5632359658973760e-01 5.7041343642849804e-05 0.0000000000000000e+00  1.0334322683097279e+00 5.4019987120142068e-04 0.0000000000000000e+00  1.0369228227862786e+00 -4.1545482728940954e-03 0.0000000000000000e+00  1.0343298054927470e+00 2.6606215554926178e-03 0.0000000000000000e+00  -8.4123662082915017e-06 2.5551264727213665e-06 0.0000000000000000e+00  1.0344391314149253e+00 5.1637037791330544e-05 0.0000000000000000e+00  1.0346552931960642e+00 -1.2501609106824383e-04 0.0000000000000000e+00  -1.0549300818094549e-05 -6.3970707570508142e-06 0.0000000000000000e+00  -2.1114971140146952e-05 5.3591062722227883e-06 0.0000000000000000e+00  -1.6010889586104329e-05 1.2207390815997635e-05 0.0000000000000000e+00  6.7988063936878524e-06 -1.5436812570495957e-06 0.0000000000000000e+00  -9.7992077746947531e-06 8.0552763987064161e-07 0.0000000000000000e+00  -8.5642661454365690e-06 -7.3082544516962670e-06 0.0000000000000000e+00  -1.3204231306460060e-05 -6.4554746663914898e-06 0.0000000000000000e+00  -1.1328365579812385e-06 -5.8356947546202891e-06 0.0000000000000000e+00  6.9207224713736283e-07 6.0307719843262247e-07 0.0000000000000000e+00  -1.6655350163542241e-05 5.0403578168121110e-06 0.0000000000000000e+00  -1.3608220905879570e-05 2.3070375183701437e-06 0.0000000000000000e+00  -5.5643211104066867e-05 2.8543240386267553e-06 0.0000000000000000e+00  -6.5861418171747936e-06 -3.3682091217664608e-06 0.0000000000000000e+00  4.6931233694246214e-06 2.5237528256305184e-07 0.0000000000000000e+00  -2.5284448303942197e-05 1.1505129393263230e-05 0.0000000000000000e+00  -1.6629746563956735e-05 -8.3363179307220741e-06 0.0000000000000000e+00  -3.2225731702422736e-06 4.4321531825584390e-06 0.0000000000000000e+00  -5.4317546780065979e-06 -8.1213466734439010e-06 0.0000000000000000e+00  8.8171330819043803e-06 4.3961880185501639e-06 0.0000000000000000e+00  1.0269494513754884e+00 4.1974865521091850e-03 0.0000000000000000e+00  1.0318399361206487e+00 3.8127105127101936e-04 0.0000000000000000e+00  1.0335843612551985e+00 1.2243689780070028e-03 0.0000000000000000e+00  1.0341570598045582e+00 1.5846512157762958e-03 0.0000000000000000e+00  1.0347969093441316e+00 3.1397737569598200e-07 0.0000000000000000e+00  1.0348612454927033e+00 1.1499198135627915e-04 0.0000000000000000e+00  1.0347443442921793e+00 -9.9293033855739972e-04 0.0000000000000000e+00  1.0294368128116207e+00 2.4250229884852648e-03 0.0000000000000000e+00  9.9478606865692698e-01 1.0631700059467467e-02 0.0000000000000000e+00  1.0701303326080216e+00 3.3887952524553261e-02 0.0000000000000000e+00  9.1301058689348236e-01 2.2755491728466404e-01 0.0000000000000000e+00  1.0353723521569118e+00 1.3176071868403492e-04 0.0000000000000000e+00  1.0350187840493619e+00 4.1344533592103515e-05 0.0000000000000000e+00  1.0348883524606953e+00 5.7736409648765068e-05 0.0000000000000000e+00  1.0347434813276200e+00 -2.8427906872559094e-05 0.0000000000000000e+00  1.0335302008903364e+00 -2.1325873581063863e-04 0.0000000000000000e+00  1.0331820248196470e+00 -4.9299752069493328e-05 0.0000000000000000e+00  1.0350162347079019e+00 -9.7164855236673057e-04 0.0000000000000000e+00  1.0346787068534233e+00 6.5265239619212702e-05 0.0000000000000000e+00  1.0348757705991600e+00 -4.4751701655361978e-05 0.0000000000000000e+00  1.0343944678932071e+00 1.4966389727774725e-03 0.0000000000000000e+00  9.6566131656353926e-01 -2.7450403175152910e-01 0.0000000000000000e+00  1.0347522601135888e+00 -3.6562433366800033e-05 0.0000000000000000e+00  1.0348502940624773e+00 1.6004298585029433e-04 0.0000000000000000e+00  1.0348325060313142e+00 -3.2786672996408108e-05 0.0000000000000000e+00  1.0325949365341782e+00 1.0814923641644034e-03 0.0000000000000000e+00  1.0348399045481356e+00 -7.9791515591841305e-06 0.0000000000000000e+00  1.0348635119023417e+00 -6.5114030244262566e-05 0.0000000000000000e+00  1.0334995616064568e+00 4.0301934257981994e-04 0.0000000000000000e+00  1.0347148943081077e+00 -8.6782661970986866e-05 0.0000000000000000e+00  1.0336745731526094e+00 -6.1652978005244852e-04 0.0000000000000000e+00  1.0346656985724165e+00 -9.6493100467230392e-04 0.0000000000000000e+00  6.5631862247099171e-01 -9.0721291458975811e-05 0.0000000000000000e+00  1.0345607212210328e+00 -2.0918263469499377e-03 0.0000000000000000e+00  1.0338687901258041e+00 -4.3526458573112835e-05 0.0000000000000000e+00  1.0261976555831445e+00 2.3323479745032592e-02 0.0000000000000000e+00  1.0360401881635235e+00 -1.5082642486729495e-03 0.0000000000000000e+00  1.0346590906818549e+00 -1.3421123056381190e-04 0.0000000000000000e+00  1.0346551071180732e+00 -5.0871886270584253e-05 0.0000000000000000e+00  1.0350428781154080e+00 1.5254074834440402e-04 0.0000000000000000e+00  1.0347573893966209e+00 1.0791867113976578e-04 0.0000000000000000e+00  1.0347754684142156e+00 1.4928658125883514e-04 0.0000000000000000e+00  1.0511215175700550e+00 1.0584994519220214e-02 0.0000000000000000e+00  1.0348555572329896e+00 1.5324907818513648e-03 0.0000000000000000e+00  1.0333964072053226e+00 1.6780305684467951e-03 0.0000000000000000e+00  1.0347010419001843e+00 -1.0310615953951979e-04 0.0000000000000000e+00  1.0353694732464001e+00 -9.7407653680066549e-04 0.0000000000000000e+00  1.0339474639747221e+00 -1.5565269335209419e-03 0.0000000000000000e+00  1.0360002605876020e+00 3.3308742563262092e-04 0.0000000000000000e+00  1.0448778558509049e+00 -2.9933735864457319e-03 0.0000000000000000e+00  1.0349145318680497e+00 -8.0870571937639868e-04 0.0000000000000000e+00  1.0307969188161281e+00 1.3982389012554359e-03 0.0000000000000000e+00  8.5723207641782528e-01 5.5763868147072115e-01 0.0000000000000000e+00  1.0386955910624291e+00 1.2756772182634011e-03 0.0000000000000000e+00  1.0329383726364236e+00 8.5747324687123492e-04 0.0000000000000000e+00  1.0348871100696069e+00 1.3481739992084346e-05 0.0000000000000000e+00  1.0347535026889167e+00 -1.1398921017797617e-04 0.0000000000000000e+00  1.0407509154741743e+00 1.6886411131379453e-01 0.0000000000000000e+00  1.0330115147310701e+00 -2.0052158795871690e-03 0.0000000000000000e+00  1.0345819085400010e+00 3.0470239870765750e-04 0.0000000000000000e+00  1.0346134225673744e+00 4.0810064963440091e-06 0.0000000000000000e+00  1.0355189868575154e+00 8.1759679980280458e-04 0.0000000000000000e+00  1.1409972969084403e+00 4.4336013950292762e-02 0.0000000000000000e+00  1.0347986254541610e+00 -8.0077854536275223e-05 0.0000000000000000e+00  1.0346963804014120e+00 5.4261848964779588e-05 0.0000000000000000e+00  1.0348651697284514e+00 1.5800516841320340e-04 0.0000000000000000e+00  1.0346146921635466e+00 -9.6896401533237136e-05 0.0000000000000000e+00  1.0289017351714853e+00 -4.6085389157766842e-03 0.0000000000000000e+00  1.0296805988834461e+00 -1.6763738947935542e-04 0.0000000000000000e+00  1.0340398349529627e+00 -1.6854800700201367e-03 0.0000000000000000e+00  1.0349429357298954e+00 1.0776366267160743e-03 0.0000000000000000e+00  1.0335507691337467e+00 -3.6557378556882918e-04 0.0000000000000000e+00  1.0348014648943649e+00 2.9416919170757768e-05 0.0000000000000000e+00  1.0386471657628900e+00 1.9358581378299030e-03 0.0000000000000000e+00  1.0347319450568042e+00 -1.2972249127369320e-04 0.0000000000000000e+00  1.0347807684595183e+00 -2.8180726040889916e-04 0.0000000000000000e+00  1.2539215057680533e+00 3.9877859978146905e-02 0.0000000000000000e+00  1.0348360907035401e+00 -1.2657866250742581e-04 0.0000000000000000e+00  1.0349126254006344e+00 -1.1396273022240552e-04 0.0000000000000000e+00  1.0347131182043683e+00 4.1490529611266102e-05 0.0000000000000000e+00  1.0195790465946297e+00 5.4729463727271688e-03 0.0000000000000000e+00  1.0346845341799844e+00 2.5212995315052414e-04 0.0000000000000000e+00  1.0280642347643660e+00 -1.2889329160172320e-02 0.0000000000000000e+00  1.0329373265582016e+00 -3.8622301515882509e-04 0.0000000000000000e+00  7.5305045765300915e-01 -3.9838700316852227e-01 0.0000000000000000e+00  1.1310124299483315e+00 -5.2527029923935500e-02 0.0000000000000000e+00  1.0325834110915766e+00 1.3999156219814464e-03 0.0000000000000000e+00  1.0294551722529246e+00 2.6793740963432249e-04 0.0000000000000000e+00  1.3104391583885271e+00 3.1191158545506897e-01 0.0000000000000000e+00  1.1369745619090783e+00 1.4596998309069564e-01 0.0000000000000000e+00  1.0376677492966739e+00 -6.3623988736452464e-03 0.0000000000000000e+00  1.4213262044989712e+00 -1.4744767073601359e-01 0.0000000000000000e+00  1.2865920017267887e+00 -3.6128401732472981e-01 0.0000000000000000e+00  1.1259469199780954e+00 -1.6655576688383006e-01 0.0000000000000000e+00  1.0337746055003083e+00 -1.9640574445981916e-03 0.0000000000000000e+00  1.0309152069826455e+00 -1.7817621706213206e-03 0.0000000000000000e+00  1.0338621713493750e+00 -9.8473238001915123e-04 0.0000000000000000e+00  1.0335841489069173e+00 9.4785027426453488e-04 0.0000000000000000e+00  1.0348309523797352e+00 -2.9804027831296313e-04 0.0000000000000000e+00  1.0286818197310188e+00 -1.9238009119056346e-03 0.0000000000000000e+00  1.4062441669864836e+00 -1.9498314964601111e-05 0.0000000000000000e+00  1.0361214464991320e+00 -2.2460270011200587e-04 0.0000000000000000e+00  1.0378116579733998e+00 3.9299471170549530e-03 0.0000000000000000e+00  1.4062602783219054e+00 3.0262971451374597e-05 0.0000000000000000e+00  1.0350511831078533e+00 2.2522226924569913e-04 0.0000000000000000e+00  1.0346243855393009e+00 -1.2562335299749256e-04 0.0000000000000000e+00  1.2257435550358793e+00 -1.8233846793891988e-02 0.0000000000000000e+00  1.0347272966765533e+00 1.5895783346450698e-04 0.0000000000000000e+00  9.0455517975538280e-01 2.1733929551588033e-01 0.0000000000000000e+00  1.0355419494664120e+00 -2.5331076421854969e-04 0.0000000000000000e+00  1.0370766021089253e+00 -4.9355739964262423e-03 0.0000000000000000e+00  1.0358784662453937e+00 2.7959478332773008e-04 0.0000000000000000e+00  1.0182293572470005e+00 -6.0644981879396809e-03 0.0000000000000000e+00  1.0348129955094154e+00 2.1264770524934948e-04 0.0000000000000000e+00  1.0265432954506311e+00 -1.4969394786624563e-03 0.0000000000000000e+00  1.0361105902253420e+00 8