<?xml version="1.0"?>
<VTKFile type="UnstructuredGrid"  version="0.1"  >
<UnstructuredGrid>
<Piece  NumberOfPoints="2446" NumberOfCells="4585">
<Points>
<DataArray  type="Float64"  NumberOfComponents="3"  format="ascii">0 0.41 0  0 0 0  2.2 0 0  2.2 0.41 0  0.2404508497187474 0.2293892626146237 0  0.25 0.2 0  0.2404508497187474 0.1706107373853764 0  0.2154508497187474 0.1524471741852423 0  0.1845491502812526 0.1524471741852423 0  0.1595491502812526 0.1706107373853764 0  0.15 0.2 0  0.1595491502812526 0.2293892626146237 0  0.1845491502812527 0.2475528258147577 0  0.2154508497187474 0.2475528258147577 0  1.1 0 0  1.1 0.41 0  0 0.205 0  0.55 0 0  0.55 0.41 0  0.275 0 0  0.275 0.41 0  1.65 0.41 0  1.65 0 0  0.8250000000000001 0.41 0  0.8250000000000001 0 0  1.375 0 0  1.375 0.41 0  1.925 0 0  1.925 0.41 0  1.5125 0.205 0  1.7875 0.205 0  0.6875 0.205 0  0.9625000000000001 0.205 0  1.2375 0.205 0  2.2 0.205 0  0.4687002074688797 0.2068568464730291 0  1.99375 0.2152743902439024 0  2.0625 0 0  2.0625 0.41 0  2.2 0.3075 0  0.4125 0 0  0.4125 0.41 0  1.7875 0.41 0  1.375 0.1486128048780488 0  1.5125 0 0  1.7875 0 0  1.5125 0.41 0  0.8250000000000001 0.2613871951219511 0  0.9625000000000001 0.41 0  0.9625000000000001 0 0  0.6875 0.41 0  0.6875 0 0  0.1375 0 0  0.1375 0.41 0  1.2375 0 0  1.1 0.1486128048780487 0  1.2375 0.41 0  1.65 0.1486128048780487 0  1.126715909090909 0.2793064024390244 0  1.676715909090909 0.2793064024390244 0  0.8517159090909092 0.1306935975609756 0  1.348284090909091 0.2793064024390244 0  0.34375 0.3032389320646208 0  1.894702181800738 0.1282910975492754 0  2.092797818199262 0.1282910975492754 0  1.85625 0.3075 0  0.61875 0.3075 0  0.61875 0.1025 0  0.3648540804333487 0.1240075933101478 0  0 0.3075 0  0 0.1025 0  2.099172119769978 0.25625 0  0.48125 0.09238439620688085 0  0.5781001037344399 0.2059284232365146 0  0.48125 0.3196743479159776 0  0.7265881057911006 0.3055240343720796 0  1.99375 0.08395950269330846 0  1.459960956013612 0.3075 0  1.569025960719943 0.2986889805672169 0  0.75625 0.08213100772579164 0  1.03125 0.3278689922742084 0  0.923871252904788 0.3078247185783941 0  1.959375 0.3126371951219512 0  1.749222215368287 0.1025 0  1.275777784631713 0.1025 0  2.2 0.1025 0  1.225938124459196 0.3075 0  1.550777784631713 0.1025 0  1.000777784631713 0.1025 0  1.44375 0.07430640243902442 0  1.16875 0.07430640243902437 0  1.899250267340833 0.2229966846119207 0  0.1020898364287272 0.3140258291809757 0  1.766482954545455 0.2934032012195123 0  0.3405058858996321 0.2119987970531874 0  0.7710785630958338 0.1710968191298857 0  1.046078563095834 0.2389031808701144 0  0.2 0.3400647632937836 0  1.421109702350723 0.2261157654379721 0  0.2800464974185557 0.08982544815605742 0  0.098916018031319 0.09171660955420841 0  2.13125 0 0  2.118919042110979 0.3422084711244843 0  1.30625 0.41 0  0.89375 0 0  1.597888256393107 0.2173787389261347 0  0.20625 0 0  1.829299675393195 0.07400700849299596 0  1.71875 0.41 0  1.16875 0.41 0  2.038220665644273 0.332420740103091 0  0.34375 0 0  0.417496017710808 0.2696595573092803 0  0.2 0.07687845740457822 0  0.9295982307099278 0.1343158415898188 0  0.07390688010811153 0.1697064032433452 0  0.5238366813727013 0.2578302467013575 0  0.05452951551825875 0.25625 0  0.5229630068078351 0.1548816096928243 0  1.452769549894695 0.1548122580621249 0  1.369219062229598 0.07430640243902442 0  1.30625 0 0  0.8504409521244898 0.3356935975609756 0  0.8821881244591965 0.205 0  1.720943423819132 0.1714577452753128 0  1.157188124459196 0.205 0  1.094219062229598 0.07430640243902437 0  1.03125 0 0  1.304056576180868 0.1714577452753128 0  1.67579304192913 0.07430640243902437 0  0.2751941921308361 0.3346083473122598 0  1.209670467133757 0.1362100266964769 0  1.025335513626278 0.1700681449722324 0  0.7562500000000001 0.41 0  1.58125 0 0  0.7567170593862014 0.2409196493502535 0  0.6926714215682891 0.1272249611432207 0  0.4139715849905988 0.3397932387114203 0  0.9840787304190477 0.2717749043358119 0  0.06875000000000001 0.41 0  0 0.35875 0  0.9281250000000001 0.06276726142697993 0  0.5507396469029935 0.3219409231578227 0  0.5504468037989405 0.09136885600634273 0  1.58125 0.41 0  1.631724228912893 0.3381867502687533 0  1.825608881788174 0.14499488549201 0  1.85625 0 0  1.44375 0 0  1.44375 0.41 0  1.85625 0.41 0  2.13125 0.41 0  0.7562500000000001 0 0  0.89375 0.41 0  0.4812500000000001 0 0  0.34375 0.41 0  0.4812500000000001 0.41 0  0.20625 0.41 0  0.06875000000000001 0 0  1.16875 0 0  0.61875 0 0  0.61875 0.41 0  1.03125 0.41 0  1.71875 0 0  1.99375 0 0  1.99375 0.41 0  1.340625 0.3489494290853124 0  1.134375 0.3489494290853123 0  1.700180620188976 0.3438659752031281 0  2.135782184673599 0.07126652247502523 0  1.668441847249787 0.2129203728327609 0  1.295782514339747 0.2378437748815763 0  0.8233075729931248 0.06842334294821524 0  1.409375 0.3520314716057996 0  0.403505597322782 0.182067236678212 0  0.378125 0.05794951541303489 0  0.3043468223249023 0.1518321115979534 0  2.129248544730567 0.1906135162504124 0  2.060771381434487 0.1989445750470348 0  2.013252586573865 0.1496169464686054 0  1.942766402200229 0.1734448904596831 0  1.895522487186454 0.06076163953489683 0  2.069553871656643 0.06605731020975725 0  1.274680914880868 0.3520219391081363 0  1.614713220494657 0.09473434380863296 0  0.7899021319497519 0.3149123934144827 0  0.69518737419149 0.0634051089053758 0  0.2971740475496061 0.2592172353407536 0  1.72990325744076 0.2380068107952482 0  1.356580098625191 0.2120393231351682 0  2.034370752044885 0.2668681600792073 0  1.51768709249349 0.3426260931494756 0  1.561883724969884 0.1650446847858835 0  1.197344062229598 0.2523725417393646 0  1.804085235518364 0.3468178408964637 0  1.817887819205233 0.2589243285818559 0  1.905897727272727 0.3485060975609756 0  0.6719798073392919 0.2688965171178177 0  0 0.05125 0  0.653125 0.35875 0  0.6396896119294488 0.1627615407790282 0  0.4274150154087412 0.1242548552168279 0  1.192836486056382 0.3562350748565544 0  0.8279124365364005 0.183856489168822 0  1.097485222388854 0.2083571153401724 0  1.28257088594801 0.2944411014911587 0  1.474860187679412 0.2504218616229368 0  1.406767003493824 0.2829282258560709 0  0.446875 0.04619219810344041 0  0.515625 0.04585361801037557 0  0.592043440706648 0.05125 0  1.845656689180403 0.1998310418452388 0  2.144958525570388 0.2909790873294231 0  0.6171090763650112 0.2492366900333857 0  2.2 0.15375 0  0.5145586920831158 0.3648371739579888 0  1.57794966442982 0.3540357145964566 0  0.721875 0.3633107922168974 0  0.0496154796471391 0.333125 0  0.5843750000000001 0.3662560860076676 0  0.5810878747760798 0.1474002776121195 0  1.508991196088596 0.1421783375065625 0  0.8840670607017558 0.2640994375393898 0  0.09776612425612034 0.2204896805326566 0  1.50436820029908 0.06143401634903343 0  1.223857000523521 0.0823554862453532 0  1.153316824384777 0.1289850171317837 0  2.148922302309752 0.1258841779285271 0  0.309375 0.04312325590431198 0  1.621993280276081 0.2841214267927899 0  1.550118654119087 0.2461998729100966 0  1.327182649291491 0.1216967252533594 0  1.051977450479407 0.1221382572915816 0  1.753125 0.04556020050186112 0  1.271875 0.04556020050186116 0  0.9816084133102366 0.05126138213476004 0  1.039051841454368 0.0572224914831029 0  0.9719230514536006 0.3480477870845102 0  1.94956388244759 0.1180512551534177 0  1.949997712993411 0.04965831614304109 0  1.771961817615021 0.1530278789497521 0  1.909246823951428 0.2812757146784527 0  0.2459536687882397 0.04668633953831142 0  1.948575539857022 0.2445328248721197 0  1.697271520964565 0.1233917627620729 0  0.7964897648514618 0.1211426571931604 0  1.065625 0.3689344961371042 0  1.085849084308977 0.3170853572226867 0  0.4702981435440001 0.260434880697798 0  1.577403511714593 0.05463601888079143 0  0.05622663515370135 0.05493816910862376 0  0.3267207591099919 0.3566194660323104 0  0.9003051618565143 0.3564049499960621 0  1.751571320346033 0.3651102912045228 0  0.1583785085108421 0.2994699345738728 0  0.1455283439499995 0.3542795598723423 0  2.2 0.35875 0  0.2347662494194072 0.298325008655211 0  0.1527284455616188 0.1065771775690181 0  0.1382139529076665 0.05427454456341477 0  0.8749341636311069 0.05110114999892954 0  0.643661668713109 0.05693499781019222 0  1.466879772203159 0.3611261772912453 0  1.990280163552011 0.3564754268533217 0  1.17471064520912 0.2990917256188288 0  0.5202693090594349 0.206382495511728 0  0 0.25625 0  2.2 0.25625 0  2.2 0.05125 0  0 0.15375 0  1.853978576207987 0.35875 0  0.9787513713939683 0.1487523696999336 0  0.240625 0.3722153812029779 0  1.515638456102889 0.2882700110184686 0  0.09048297387599738 0.3637717362208066 0  2.150453692751374 0.2387066338105111 0  1.323782677156475 0.04897634338873398 0  0.8074131292871642 0.3624701995505916 0  1.409375 0.03715320121951221 0  1.406484531114799 0.1087852750766809 0  1.134375 0.03715320121951218 0  1.627401732573545 0.04552157221025036 0  0.1170173172005315 0.1427610859166811 0  2.045405893604797 0.1105340662939892 0  1.255408269734577 0.1577307500159216 0  2.028125 0.03707597992059326 0  0.4743610090857199 0.1421513964721819 0  0.9354010469015898 0.250631300585664 0  0.04420832937638274 0.128125 0  0.8922386349349938 0.0992956419364831 0  0.1197849154434487 0.2663398672460083 0  1.248258025468107 0.2565907092181813 0  0.3746885856929528 0.370723531618974 0  1.203125 0.0366132337404304 0  0.5724622277005015 0.2751253816079333 0  0.3365425205162783 0.08395777655057959 0  2.072662025974815 0.2975086504196739 0  0.4581080832182547 0.3648371739579888 0  0.3874522734668214 0.2295447548840689 0  0.7827853612484443 0.04106550386289586 0  1.887722846421017 0.1760882698830035 0  1.472640588990488 0.1118278026240017 0  1.865937103925594 0.2604137786483804 0  1.463913572748262 0.2030442564990043 0  1.376426316059077 0.3186741374914345 0  0.6641993820150034 0.3141688596240831 0  0.2943117490824315 0.2130987422685822 0  0.3478153998082709 0.1666571081082676 0  0.3427990510599805 0.2575950027870776 0  0.7997118993855807 0.2216171933356366 0  
[...]
<PointData  Vectors="f_31"> 
<DataArray  type="Float64"  Name="f_31"  NumberOfComponents="3" format="ascii">2.1313053550391400e-06 6.3906164432597993e-08 0.0000000000000000e+00  -2.2785446057988675e-06 1.1983846644287439e-08 0.0000000000000000e+00  4.1300787065834085e-06 -2.0814201152860183e-08 0.0000000000000000e+00  -1.6655847281234684e-05 4.0506415739447536e-08 0.0000000000000000e+00  -4.9517751277766079e-06 1.2053038249458220e-06 0.0000000000000000e+00  -9.9236644835922475e-06 1.9168971466704660e-05 0.0000000000000000e+00  -9.2673974872643703e-06 1.0280890880144793e-05 0.0000000000000000e+00  -7.3314777793987009e-06 -3.5525503738193095e-06 0.0000000000000000e+00  -1.1068580741735838e-05 -4.9451804513092069e-06 0.0000000000000000e+00  -6.8122096075218727e-06 1.3227272927994936e-06 0.0000000000000000e+00  1.0807056886386145e-06 8.7179786357343715e-06 0.0000000000000000e+00  -4.8051857408031165e-06 -3.1704861708842939e-06 0.0000000000000000e+00  9.5204087701336446e-06 3.5994166982773178e-06 0.0000000000000000e+00  -1.2701529511692969e-05 -3.0802393632960409e-07 0.0000000000000000e+00  -2.8314519506329618e-06 1.5954274587158660e-08 0.0000000000000000e+00  -1.9377320823684053e-07 4.0072732494100938e-08 0.0000000000000000e+00  1.5000042308814381e+00 1.5417579664096781e-06 0.0000000000000000e+00  -1.7889069460712580e-05 3.5823588832307125e-08 0.0000000000000000e+00  -6.8704034202126616e-06 -2.2115719280294042e-07 0.0000000000000000e+00  7.0283084204946026e-06 -4.0268625901767016e-08 0.0000000000000000e+00  -1.8408453085048298e-07 5.6398807398700732e-07 0.0000000000000000e+00  2.2570382658514341e-07 -2.2819417465609132e-08 0.0000000000000000e+00  5.3624889232265513e-08 -5.6978597294782749e-08 0.0000000000000000e+00  1.2603632008649911e-06 -4.1429904697768937e-08 0.0000000000000000e+00  -5.5171672674834282e-06 1.3398039139407039e-08 0.0000000000000000e+00  -4.0652038777359107e-06 1.1386334144631949e-08 0.0000000000000000e+00  -8.0180416706645489e-07 5.8964705702225942e-08 0.0000000000000000e+00  -3.2978032829919957e-06 5.1127110260543616e-08 0.0000000000000000e+00  -2.7539736208673175e-06 -4.3197846198662199e-08 0.0000000000000000e+00  1.1088998490803066e+00 5.6878281745010636e-05 0.0000000000000000e+00  1.1088638307429677e+00 -5.2493639007603662e-06 0.0000000000000000e+00  1.1108935095021564e+00 -5.2522848326504923e-03 0.0000000000000000e+00  1.1087251122406960e+00 -3.5323682270068491e-04 0.0000000000000000e+00  1.1085096897385311e+00 -4.4384470326574074e-05 0.0000000000000000e+00  1.1087775499241901e+00 4.9513793570759627e-05 0.0000000000000000e+00  7.2134794313828998e-01 -7.5226962900253783e-02 0.0000000000000000e+00  1.1086882792685102e+00 -2.7688141661778767e-05 0.0000000000000000e+00  1.1987988410254582e-07 1.0610143599557925e-08 0.0000000000000000e+00  -9.8456017612692537e-07 -8.6806478465811314e-10 0.0000000000000000e+00  1.1085492024582848e+00 1.5149439055244941e-04 0.0000000000000000e+00  9.7339180812935951e-06 1.9779150360717997e-06 0.0000000000000000e+00  6.5782999991018581e-06 -1.5305820708979275e-06 0.0000000000000000e+00  -6.6758694085690358e-06 -8.2587439702519387e-08 0.0000000000000000e+00  1.1087507940970542e+00 8.2992070783668160e-05 0.0000000000000000e+00  -7.6730476704681919e-07 -2.6646326711828642e-08 0.0000000000000000e+00  -4.5044058032044886e-06 2.7451407186903887e-08 0.0000000000000000e+00  7.7374380482611205e-07 1.1076838811780247e-09 0.0000000000000000e+00  1.1098607374916936e+00 -7.4961233396620417e-04 0.0000000000000000e+00  -2.1470185850186711e-06 -8.3700808478616835e-09 0.0000000000000000e+00  2.3914087751855094e-06 -1.8625670912580425e-08 0.0000000000000000e+00  1.9207116634715159e-06 -4.7549747884876878e-08 0.0000000000000000e+00  -7.1515054642195996e-06 1.1120963045333747e-07 0.0000000000000000e+00  -5.2213134303237107e-06 1.0933559049588554e-06 0.0000000000000000e+00  -5.3035641913953541e-06 -9.5935410945498751e-07 0.0000000000000000e+00  2.0187919896270785e-07 2.9784383042543070e-08 0.0000000000000000e+00  1.1085980481655959e+00 -1.0565679712367559e-04 0.0000000000000000e+00  -1.7635010300617824e-06 1.8332470680132744e-08 0.0000000000000000e+00  1.1088338983032198e+00 1.6434028281140954e-05 0.0000000000000000e+00  1.1087133528862472e+00 -1.9488950918827124e-05 0.0000000000000000e+00  1.1085703832380429e+00 9.0991516872051273e-08 0.0000000000000000e+00  1.1084236171601753e+00 -1.1934637604368841e-03 0.0000000000000000e+00  1.1087528583998758e+00 -6.6739132169523074e-05 0.0000000000000000e+00  1.9070777538536776e+00 -2.1229736804944474e-01 0.0000000000000000e+00  1.1088539264426385e+00 -1.0139407818295718e-04 0.0000000000000000e+00  1.1087683370287216e+00 -3.7640707011013420e-05 0.0000000000000000e+00  1.1084040393189851e+00 -1.2495293164622432e-05 0.0000000000000000e+00  1.1295365707752552e+00 -1.4233985387258651e-03 0.0000000000000000e+00  1.1131729530917578e+00 -9.3986378708969410e-03 0.0000000000000000e+00  1.8207421726407642e+00 4.4326930956800187e-01 0.0000000000000000e+00  1.1249990216511627e+00 6.2493097748650838e-07 0.0000000000000000e+00  1.1249900689527057e+00 1.0851871525941663e-06 0.0000000000000000e+00  1.1086959951429898e+00 -2.2642486294128566e-05 0.0000000000000000e+00  1.1969424559622797e+00 1.7779530798563606e-02 0.0000000000000000e+00  1.0947760729980656e+00 -1.6955950833063324e-02 0.0000000000000000e+00  1.2138887195930221e+00 -1.0118912315250146e-02 0.0000000000000000e+00  1.1127068168185639e+00 1.2798509453621363e-04 0.0000000000000000e+00  1.1073819897610266e+00 -1.0831076725180575e-04 0.0000000000000000e+00  1.1087724594288257e+00 7.6098577797793798e-05 0.0000000000000000e+00  1.1083352636877528e+00 1.7618527026373563e-04 0.0000000000000000e+00  1.1046200645094408e+00 -2.8798002184186886e-03 0.0000000000000000e+00  1.1062866152827788e+00 2.5643658340933551e-04 0.0000000000000000e+00  1.1088708943143180e+00 -1.2344265540155142e-04 0.0000000000000000e+00  1.1084181963579269e+00 1.3698876965209496e-04 0.0000000000000000e+00  1.1079832166136230e+00 -2.5205194952059365e-04 0.0000000000000000e+00  1.1086619344613329e+00 -5.3727079210133870e-05 0.0000000000000000e+00  1.1083148929917215e+00 -1.7264032057346973e-04 0.0000000000000000e+00  1.1085703922332537e+00 -1.5684844948044052e-05 0.0000000000000000e+00  1.1084820520483998e+00 -8.6843038235976067e-05 0.0000000000000000e+00  1.1085657473042196e+00 -1.2619634985276804e-04 0.0000000000000000e+00  1.1046246868498599e+00 2.0627879337691693e-04 0.0000000000000000e+00  1.1042875032458905e+00 1.3962262000118044e-04 0.0000000000000000e+00  1.1087241670750394e+00 2.2026744773925104e-05 0.0000000000000000e+00  1.1881017088927670e+00 2.5354325765832658e-01 0.0000000000000000e+00  1.1085257136929296e+00 4.1748410424238009e-06 0.0000000000000000e+00  -7.1811455362320820e-01 -3.7529169194420356e-02 0.0000000000000000e+00  1.1090503085352528e+00 -2.6829238397258082e-03 0.0000000000000000e+00  1.1088134690941367e+00 -1.1927976228933893e-04 0.0000000000000000e+00  1.3941024502288317e+00 2.1123317689569807e-01 0.0000000000000000e+00  1.1086925701699752e+00 7.5585082679856196e-06 0.0000000000000000e+00  1.8874425744561014e+00 -4.9475207872276508e-02 0.0000000000000000e+00  1.1400951584660395e+00 -2.4534179710898318e-01 0.0000000000000000e+00  -5.7570903857635448e-07 5.2199672082387446e-09 0.0000000000000000e+00  1.0993262663509167e+00 2.9571179371341616e-04 0.0000000000000000e+00  -2.4553348418015800e-06 -3.9717083934466965e-08 0.0000000000000000e+00  -7.3595415589243550e-06 1.5169486547922596e-08 0.0000000000000000e+00  1.1089157282357287e+00 2.1042612570910686e-05 0.0000000000000000e+00  2.0036835580169058e-06 -4.8560343182210467e-07 0.0000000000000000e+00  1.1040348899344010e+00 1.5862173004446088e-05 0.0000000000000000e+00  -3.3374041988945038e-06 2.1683674145732739e-08 0.0000000000000000e+00  -2.3176743010144594e-06 -1.8604026968329194e-08 0.0000000000000000e+00  1.1058784702506321e+00 -9.0748395813101810e-05 0.0000000000000000e+00  8.3892332967985570e-06 4.0228228306232526e-07 0.0000000000000000e+00  1.5374839626221197e+00 -4.9270917841295125e-01 0.0000000000000000e+00  1.5229186117139757e+00 -2.6701760795215890e-01 0.0000000000000000e+00  1.1085321620344464e+00 -5.4096523879851907e-04 0.0000000000000000e+00  1.3360741674907557e+00 -1.0209018782094102e-01 0.0000000000000000e+00  1.1471658588016167e+00 -8.3563752286574741e-02 0.0000000000000000e+00  1.3740075845569946e+00 1.2919567178102156e-01 0.0000000000000000e+00  1.0984155769585728e+00 5.5328863261085881e-02 0.0000000000000000e+00  1.1087507595761532e+00 9.6608923268440617e-05 0.0000000000000000e+00  1.1034129232082037e+00 -2.4727896637217740e-04 0.0000000000000000e+00  -4.9592562522014967e-07 -7.1842666703496057e-09 0.0000000000000000e+00  1.1042827292832815e+00 1.5182467060377309e-04 0.0000000000000000e+00  1.1089230535846344e+00 -7.7235809780518562e-04 0.0000000000000000e+00  1.1087627223844014e+00 2.1027608218533406e-05 0.0000000000000000e+00  1.1085411168832138e+00 -4.0266568591234314e-05 0.0000000000000000e+00  1.1047271441210305e+00 -2.4862528672887549e-04 0.0000000000000000e+00  -3.4593915919043855e-06 -1.4866794267863523e-08 0.0000000000000000e+00  1.1086496998899562e+00 4.6073676587713865e-06 0.0000000000000000e+00  1.1040591998250417e+00 7.2226981729832515e-05 0.0000000000000000e+00  1.6331595500331957e+00 3.6925176916960789e-02 0.0000000000000000e+00  1.1086532879016286e+00 -2.6479777578962256e-05 0.0000000000000000e+00  1.1086398899465324e+00 -1.7973395123293219e-04 0.0000000000000000e+00  -1.1942225243395979e-06 -9.3375924756826484e-09 0.0000000000000000e+00  -1.4512770773399576e-05 2.7382065119358759e-08 0.0000000000000000e+00  1.1109954257198444e+00 -1.9929395011722383e-03 0.0000000000000000e+00  1.1084645398726345e+00 -5.4701554648881323e-03 0.0000000000000000e+00  1.3073270026643555e+00 -1.2295549998072096e-01 0.0000000000000000e+00  1.1089834070359730e+00 -1.5874081901193110e-04 0.0000000000000000e+00  -2.8130929912105621e-06 -2.5091937198969327e-07 0.0000000000000000e+00  6.5625074914715864e-01 2.7183111945814943e-07 0.0000000000000000e+00  1.0919905166199415e+00 -3.9970380449371693e-04 0.0000000000000000e+00  1.1691185085219749e+00 -6.2576302776293285e-03 0.0000000000000000e+00  1.1456329967786651e+00 -5.0254907674133860e-03 0.0000000000000000e+00  -5.6899925724618840e-06 -6.2206415827765229e-09 0.0000000000000000e+00  1.1027424738501599e+00 2.0966292097158399e-04 0.0000000000000000e+00  1.1088326106687045e+00 -7.4955422981175838e-06 0.0000000000000000e+00  -3.6865336329556118e-06 -3.4959753300967847e-08 0.0000000000000000e+00  -1.0971665914725516e-05 7.4716948713682840e-09 0.0000000000000000e+00  -5.0913851350187618e-06 -3.9100051151748466e-08 0.0000000000000000e+00  1.6331376014980427e-06 7.3703681748108224e-08 0.0000000000000000e+00  -2.9943606595507868e-06 -2.7379375071088716e-08 0.0000000000000000e+00  -1.0610152851892644e-06 6.1684419196737480e-08 0.0000000000000000e+00  5.1786757933691241e-07 6.0500062866094546e-09 0.0000000000000000e+00  -5.5566241637993407e-06 3.6712860907507832e-07 0.0000000000000000e+00  1.2723150607626420e-05 1.2190698243810457e-07 0.0000000000000000e+00  -1.1227869263201438e-05 -3.2143577616187221e-07 0.0000000000000000e+00  -2.3582165123488754e-06 -4.3505270214917185e-07 0.0000000000000000e+00  5.5013588428621092e-07 1.5901734226924054e-07 0.0000000000000000e+00  -3.2568760659289453e-07 -1.0747658468686793e-08 0.0000000000000000e+00  -1.0740487059335974e-05 3.7185843587134161e-08 0.0000000000000000e+00  -8.9705306838536427e-06 -2.3868924164327089e-07 0.0000000000000000e+00  -9.6780084515562183e-07 -3.3306429084795451e-08 0.0000000000000000e+00  -8.0057432520614209e-06 -3.7699055429803337e-08 0.0000000000000000e+00  -2.2817257671358337e-06 -1.8385215870468219e-09 0.0000000000000000e+00  -8.1340284807460314e-07 1.1162779051081317e-08 0.0000000000000000e+00  1.0877783965911638e+00 2.8012062636184696e-04 0.0000000000000000e+00  1.0901982082157589e+00 1.4541764120586646e-04 0.0000000000000000e+00  1.0974981328028222e+00 -2.2993289932674065e-04 0.0000000000000000e+00  1.1019668826347639e+00 -2.1068410885965620e-04 0.0000000000000000e+00  1.1088984239445305e+00 4.9877518148653571e-05 0.0000000000000000e+00  1.1085753369666511e+00 -3.8599063623700073e-05 0.0000000000000000e+00  1.0983159917696870e+00 -1.2399853389386286e-03 0.0000000000000000e+00  1.0833794437053361e+00 -2.8760604291881253e-04 0.0000000000000000e+00  4.9996559597862901e-02 3.4983876386623680e-01 0.0000000000000000e+00  1.3713799863241507e+00 1.6657214547122554e-01 0.0000000000000000e+00  5.2225599928922284e-01 -1.5938594204679912e-01 0.0000000000000000e+00  1.1087039866664323e+00 8.3219779141118459e-06 0.0000000000000000e+00  1.1087889299677762e+00 -1.9801408005490683e-05 0.0000000000000000e+00  1.1087684871932431e+00 -4.1467153662492874e-05 0.0000000000000000e+00  1.1087393325062085e+00 -2.4504848650815645e-05 0.0000000000000000e+00  1.0885429311910626e+00 -2.7463580910472724e-04 0.0000000000000000e+00  1.0970933559514227e+00 1.1151573350820326e-05 0.0000000000000000e+00  1.0838486766010929e+00 -2.1898298545953847e-05 0.0000000000000000e+00  1.1079590447857135e+00 -6.8281748907644225e-05 0.0000000000000000e+00  1.1099980375550238e+00 2.7711696990461029e-04 0.0000000000000000e+00  1.0883923664166479e+00 -5.9332720438504214e-03 0.0000000000000000e+00  8.5823162056350055e-01 3.6557942558199885e-02 0.0000000000000000e+00  1.1088098606672918e+00 1.6695426290565617e-05 0.0000000000000000e+00  1.1085562982869175e+00 -2.5417558982139697e-05 0.0000000000000000e+00  1.1087636795618012e+00 -1.6901761925589535e-05 0.0000000000000000e+00  1.0989533534966540e+00 5.4637729027826975e-04 0.0000000000000000e+00  1.1088285746848290e+00 3.5476647755441730e-05 0.0000000000000000e+00  1.1086225506845675e+00 2.3507617876440055e-06 0.0000000000000000e+00  1.0940395422700990e+00 -1.6223834320488003e-04 0.0000000000000000e+00  1.1087498126838227e+00 1.2466204853205807e-06 0.0000000000000000e+00  1.0909385921300763e+00 6.2850374064104186e-04 0.0000000000000000e+00  1.1159507708634477e+00 -4.0264347561901857e-03 0.0000000000000000e+00  6.5624823599771243e-01 5.9717327635509021e-08 0.0000000000000000e+00  1.0598594783641071e+00 8.0343398205215757e-03 0.0000000000000000e+00  1.1088568717364486e+00 -5.1275606287892513e-03 0.0000000000000000e+00  1.4719363212037782e+00 4.5296195841472936e-01 0.0000000000000000e+00  1.0705441013176145e+00 3.7328970475710853e-04 0.0000000000000000e+00  1.1088662021144882e+00 -1.4568217140904459e-03 0.0000000000000000e+00  1.1086109024492126e+00 -8.8766833687468476e-05 0.0000000000000000e+00  1.1087652222423805e+00 -5.0504003478843837e-05 0.0000000000000000e+00  1.1087395778571385e+00 3.6660148636122681e-05 0.0000000000000000e+00  1.1088202784370897e+00 -1.2197891785650523e-04 0.0000000000000000e+00  1.0592652366307209e+00 4.5612007670911746e-02 0.0000000000000000e+00  1.0065524583779462e+00 -2.3824473247052905e-02 0.0000000000000000e+00  1.0425943945397484e+00 -2.4612868056985079e-02 0.0000000000000000e+00  1.1087951119179513e+00 -9.6648782774875829e-06 0.0000000000000000e+00  1.1087305586699236e+00 -2.9674026307998885e-06 0.0000000000000000e+00  1.1170232389613692e+00 -1.4989544677179176e-02 0.0000000000000000e+00  1.1085811103331782e+00 7.7272949581105887e-05 0.0000000000000000e+00  1.0305238323523835e+00 9.7485193241453345e-03 0.0000000000000000e+00  1.0782614402957293e+00 2.6607011770262990e-04 0.0000000000000000e+00  1.0345629185865437e+00 2.0006751411163113e-03 0.0000000000000000e+00  9.4199974432727462e-01 9.4341595412388624e-02 0.0000000000000000e+00  1.0023444631833205e+00 2.0037754519419314e-02 0.0000000000000000e+00  1.1089268231029323e+00 3.9015725915536202e-03 0.0000000000000000e+00  1.1088352924758995e+00 6.4338173661848946e-05 0.0000000000000000e+00  1.1092749326296540e+00 -4.6017626654361869e-04 0.0000000000000000e+00  1.2247860214935471e+00 1.7165831464571310e-01 0.0000000000000000e+00  1.0917738666632886e+00 -2.8043091161911003e-04 0.0000000000000000e+00  1.1067908481007946e+00 -1.1312937269892499e-04 0.0000000000000000e+00  1.1087049490103151e+00 -7.3070983816010785e-05 0.0000000000000000e+00  1.1087551422052979e+00 -9.1114803644208386e-05 0.0000000000000000e+00  1.3386479790689769e+00 5.7894396160520882e-02 0.0000000000000000e+00  1.1085062469936029e+00 4.1587318638178593e-05 0.0000000000000000e+00  1.1086413178153298e+00 4.0732631898278558e-05 0.0000000000000000e+00  1.1087501943980955e+00 6.7634721034327537e-05 0.0000000000000000e+00  1.1086543460646945e+00 -1.5072243387680501e-04 0.0000000000000000e+00  1.0287813092925995e+00 -3.6036538642327995e-04 0.0000000000000000e+00  1.0286165776842200e+00 -3.8509598937060336e-04 0.0000000000000000e+00  1.0623515534384946e+00 -1.4225506596851417e-04 0.0000000000000000e+00  1.0809431104754481e+00 -4.7463879323437329e-05 0.0000000000000000e+00  1.0916938751212810e+00 3.0721177689093808e-04 0.0000000000000000e+00  1.1087818432828678e+00 -1.0615649890287041e-04 0.0000000000000000e+00  1.0500357851005517e+00 -5.5698536903755341e-04 0.0000000000000000e+00  1.1088679833642361e+00 -1.1843000270097970e-05 0.0000000000000000e+00  1.1088332195243569e+00 7.9581845861222668e-05 0.0000000000000000e+00  1.3287296294964881e+00 -7.0770689110424445e-02 0.0000000000000000e+00  1.1087572585690690e+00 4.3568020755217422e-06 0.0000000000000000e+00  1.1087920708665782e+00 -2.4899553148707919e-05 0.0000000000000000e+00  1.1079382731444942e+00 -2.0993891316118075e-03 0.0000000000000000e+00  9.9218432070900420e-01 -2.2430826203316120e-04 0.0000000000000000e+00  1.1083677892191195e+00 2.8342927706927916e-06 0.0000000000000000e+00  1.2620637830307686e+00 -2.6263656654953554e-01 0.0000000000000000e+00  1.0720712022592014e+00 -1.8300750525779202e-04 0.0000000000000000e+00  7.3735878200506888e-01 -7.6862571757586345e-02 0.0000000000000000e+00  1.3680396113976139e+00 -6.9768263831135921e-02 0.0000000000000000e+00  1.0685775682233059e+00 1.1511083740774609e-04 0.0000000000000000e+00  1.0233601595543484e+00 1.6757220529696340e-04 0.0000000000000000e+00  1.5365094406432860e+00 4.6382945995390790e-01 0.0000000000000000e+00  1.0035495604907101e+00 1.7373534672846488e-01 0.0000000000000000e+00  1.0598783998433161e+00 7.1949498053450189e-04 0.0000000000000000e+00  1.9167355774721810e+00 2.1501144095149044e-01 0.0000000000000000e+00  1.4612650440026174e+00 -5.0677855520525728e-01 0.0000000000000000e+00  9.7278549763712829e-01 -1.8722985984282534e-01 0.0000000000000000e+00  1.0581199809071908e+00 -6.6088595164009859e-04 0.0000000000000000e+00  1.0695451932295605e+00 -1.1832536634186815e-02 0.0000000000000000e+00  1.0485996483533457e+00 5.5444741071185148e-04 0.0000000000000000e+00  1.0699353591703926e+00 -1.4393126600344613e-04 0.0000000000000000e+00  1.1087047320503338e+00 3.2622676554185485e-05 0.0000000000000000e+00  1.0061647411175838e+00 -4.0160560605208055e-02 0.0000000000000000e+00  1.4062435163940812e+00 1.1982390936282327e-06 0.0000000000000000e+00  1.1088162668769055e+00 1.4309462781924689e-04 0.0000000000000000e+00  1.0606179519681556e+00 -1.0700401550567508e-03 0.0000000000000000e+00  1.4062428873788331e+00 1.2530405866406294e-06 0.0000000000000000e+00  1.0610023082618636e+00 -3.8484344271496988e-04 0.0000000000000000e+00  1.1085469019106307e+00 -2.9136389586455799e-04 0.0000000000000000e+00  1.1175258024392212e+00 4.3911788344423192e-02 0.0000000000000000e+00  1.1087343881924843e+00 1.2750754469871296e-04 0.0000000000000000e+00  7.1453538761097379e-01 9.8275926911794639e-02 0.0000000000000000e+00  1.1087028749933170e+00 3.4922894109086257e-05 0.0000000000000000e+00  1.0491730033926272e+00 -1.5412265261492220e-04 0.0000000000000000e+00  1.0409154072059887e+00 9.5415659843310738e-04 0.0000000000000000e+00  9.5150270419074345e-01 5.0528329883520835e-04 0.0000000000000000e+00  1.1086949622051896e+00 1.2167306693426154e-04 0.0000000000000000e+00  9.5295079598922217e-01 2.1276098477199205e-05 0.0000000000000000e+00  1.027446022689698