<?xml version="1.0"?>
<VTKFile type="UnstructuredGrid"  version="0.1"  >
<UnstructuredGrid>
<Piece  NumberOfPoints="2446" NumberOfCells="4585">
<Points>
<DataArray  type="Float64"  NumberOfComponents="3"  format="ascii">0 0.41 0  0 0 0  2.2 0 0  2.2 0.41 0  0.2404508497187474 0.2293892626146237 0  0.25 0.2 0  0.2404508497187474 0.1706107373853764 0  0.2154508497187474 0.1524471741852423 0  0.1845491502812526 0.1524471741852423 0  0.1595491502812526 0.1706107373853764 0  0.15 0.2 0  0.1595491502812526 0.2293892626146237 0  0.1845491502812527 0.2475528258147577 0  0.2154508497187474 0.2475528258147577 0  1.1 0 0  1.1 0.41 0  0 0.205 0  0.55 0 0  0.55 0.41 0  0.275 0 0  0.275 0.41 0  1.65 0.41 0  1.65 0 0  0.8250000000000001 0.41 0  0.8250000000000001 0 0  1.375 0 0  1.375 0.41 0  1.925 0 0  1.925 0.41 0  1.5125 0.205 0  1.7875 0.205 0  0.6875 0.205 0  0.9625000000000001 0.205 0  1.2375 0.205 0  2.2 0.205 0  0.4687002074688797 0.2068568464730291 0  1.99375 0.2152743902439024 0  2.0625 0 0  2.0625 0.41 0  2.2 0.3075 0  0.4125 0 0  0.4125 0.41 0  1.7875 0.41 0  1.375 0.1486128048780488 0  1.5125 0 0  1.7875 0 0  1.5125 0.41 0  0.8250000000000001 0.2613871951219511 0  0.9625000000000001 0.41 0  0.9625000000000001 0 0  0.6875 0.41 0  0.6875 0 0  0.1375 0 0  0.1375 0.41 0  1.2375 0 0  1.1 0.1486128048780487 0  1.2375 0.41 0  1.65 0.1486128048780487 0  1.126715909090909 0.2793064024390244 0  1.676715909090909 0.2793064024390244 0  0.8517159090909092 0.1306935975609756 0  1.348284090909091 0.2793064024390244 0  0.34375 0.3032389320646208 0  1.894702181800738 0.1282910975492754 0  2.092797818199262 0.1282910975492754 0  1.85625 0.3075 0  0.61875 0.3075 0  0.61875 0.1025 0  0.3648540804333487 0.1240075933101478 0  0 0.3075 0  0 0.1025 0  2.099172119769978 0.25625 0  0.48125 0.09238439620688085 0  0.5781001037344399 0.2059284232365146 0  0.48125 0.3196743479159776 0  0.7265881057911006 0.3055240343720796 0  1.99375 0.08395950269330846 0  1.459960956013612 0.3075 0  1.569025960719943 0.2986889805672169 0  0.75625 0.08213100772579164 0  1.03125 0.3278689922742084 0  0.923871252904788 0.3078247185783941 0  1.959375 0.3126371951219512 0  1.749222215368287 0.1025 0  1.275777784631713 0.1025 0  2.2 0.1025 0  1.225938124459196 0.3075 0  1.550777784631713 0.1025 0  1.000777784631713 0.1025 0  1.44375 0.07430640243902442 0  1.16875 0.07430640243902437 0  1.899250267340833 0.2229966846119207 0  0.1020898364287272 0.3140258291809757 0  1.766482954545455 0.2934032012195123 0  0.3405058858996321 0.2119987970531874 0  0.7710785630958338 0.1710968191298857 0  1.046078563095834 0.2389031808701144 0  0.2 0.3400647632937836 0  1.421109702350723 0.2261157654379721 0  0.2800464974185557 0.08982544815605742 0  0.098916018031319 0.09171660955420841 0  2.13125 0 0  2.118919042110979 0.3422084711244843 0  1.30625 0.41 0  0.89375 0 0  1.597888256393107 0.2173787389261347 0  0.20625 0 0  1.829299675393195 0.07400700849299596 0  1.71875 0.41 0  1.16875 0.41 0  2.038220665644273 0.332420740103091 0  0.34375 0 0  0.417496017710808 0.2696595573092803 0  0.2 0.07687845740457822 0  0.9295982307099278 0.1343158415898188 0  0.07390688010811153 0.1697064032433452 0  0.5238366813727013 0.2578302467013575 0  0.05452951551825875 0.25625 0  0.5229630068078351 0.1548816096928243 0  1.452769549894695 0.1548122580621249 0  1.369219062229598 0.07430640243902442 0  1.30625 0 0  0.8504409521244898 0.3356935975609756 0  0.8821881244591965 0.205 0  1.720943423819132 0.1714577452753128 0  1.157188124459196 0.205 0  1.094219062229598 0.07430640243902437 0  1.03125 0 0  1.304056576180868 0.1714577452753128 0  1.67579304192913 0.07430640243902437 0  0.2751941921308361 0.3346083473122598 0  1.209670467133757 0.1362100266964769 0  1.025335513626278 0.1700681449722324 0  0.7562500000000001 0.41 0  1.58125 0 0  0.7567170593862014 0.2409196493502535 0  0.6926714215682891 0.1272249611432207 0  0.4139715849905988 0.3397932387114203 0  0.9840787304190477 0.2717749043358119 0  0.06875000000000001 0.41 0  0 0.35875 0  0.9281250000000001 0.06276726142697993 0  0.5507396469029935 0.3219409231578227 0  0.5504468037989405 0.09136885600634273 0  1.58125 0.41 0  1.631724228912893 0.3381867502687533 0  1.825608881788174 0.14499488549201 0  1.85625 0 0  1.44375 0 0  1.44375 0.41 0  1.85625 0.41 0  2.13125 0.41 0  0.7562500000000001 0 0  0.89375 0.41 0  0.4812500000000001 0 0  0.34375 0.41 0  0.4812500000000001 0.41 0  0.20625 0.41 0  0.06875000000000001 0 0  1.16875 0 0  0.61875 0 0  0.61875 0.41 0  1.03125 0.41 0  1.71875 0 0  1.99375 0 0  1.99375 0.41 0  1.340625 0.3489494290853124 0  1.134375 0.3489494290853123 0  1.700180620188976 0.3438659752031281 0  2.135782184673599 0.07126652247502523 0  1.668441847249787 0.2129203728327609 0  1.295782514339747 0.2378437748815763 0  0.8233075729931248 0.06842334294821524 0  1.409375 0.3520314716057996 0  0.403505597322782 0.182067236678212 0  0.378125 0.05794951541303489 0  0.3043468223249023 0.1518321115979534 0  2.129248544730567 0.1906135162504124 0  2.060771381434487 0.1989445750470348 0  2.013252586573865 0.1496169464686054 0  1.942766402200229 0.1734448904596831 0  1.895522487186454 0.06076163953489683 0  2.069553871656643 0.06605731020975725 0  1.274680914880868 0.3520219391081363 0  1.614713220494657 0.09473434380863296 0  0.7899021319497519 0.3149123934144827 0  0.69518737419149 0.0634051089053758 0  0.2971740475496061 0.2592172353407536 0  1.72990325744076 0.2380068107952482 0  1.356580098625191 0.2120393231351682 0  2.034370752044885 0.2668681600792073 0  1.51768709249349 0.3426260931494756 0  1.561883724969884 0.1650446847858835 0  1.197344062229598 0.2523725417393646 0  1.804085235518364 0.3468178408964637 0  1.817887819205233 0.2589243285818559 0  1.905897727272727 0.3485060975609756 0  0.6719798073392919 0.2688965171178177 0  0 0.05125 0  0.653125 0.35875 0  0.6396896119294488 0.1627615407790282 0  0.4274150154087412 0.1242548552168279 0  1.192836486056382 0.3562350748565544 0  0.8279124365364005 0.183856489168822 0  1.097485222388854 0.2083571153401724 0  1.28257088594801 0.2944411014911587 0  1.474860187679412 0.2504218616229368 0  1.406767003493824 0.2829282258560709 0  0.446875 0.04619219810344041 0  0.515625 0.04585361801037557 0  0.592043440706648 0.05125 0  1.845656689180403 0.1998310418452388 0  2.144958525570388 0.2909790873294231 0  0.6171090763650112 0.2492366900333857 0  2.2 0.15375 0  0.5145586920831158 0.3648371739579888 0  1.57794966442982 0.3540357145964566 0  0.721875 0.3633107922168974 0  0.0496154796471391 0.333125 0  0.5843750000000001 0.3662560860076676 0  0.5810878747760798 0.1474002776121195 0  1.508991196088596 0.1421783375065625 0  0.8840670607017558 0.2640994375393898 0  0.09776612425612034 0.2204896805326566 0  1.50436820029908 0.06143401634903343 0  1.223857000523521 0.0823554862453532 0  1.153316824384777 0.1289850171317837 0  2.148922302309752 0.1258841779285271 0  0.309375 0.04312325590431198 0  1.621993280276081 0.2841214267927899 0  1.550118654119087 0.2461998729100966 0  1.327182649291491 0.1216967252533594 0  1.051977450479407 0.1221382572915816 0  1.753125 0.04556020050186112 0  1.271875 0.04556020050186116 0  0.9816084133102366 0.05126138213476004 0  1.039051841454368 0.0572224914831029 0  0.9719230514536006 0.3480477870845102 0  1.94956388244759 0.1180512551534177 0  1.949997712993411 0.04965831614304109 0  1.771961817615021 0.1530278789497521 0  1.909246823951428 0.2812757146784527 0  0.2459536687882397 0.04668633953831142 0  1.948575539857022 0.2445328248721197 0  1.697271520964565 0.1233917627620729 0  0.7964897648514618 0.1211426571931604 0  1.065625 0.3689344961371042 0  1.085849084308977 0.3170853572226867 0  0.4702981435440001 0.260434880697798 0  1.577403511714593 0.05463601888079143 0  0.05622663515370135 0.05493816910862376 0  0.3267207591099919 0.3566194660323104 0  0.9003051618565143 0.3564049499960621 0  1.751571320346033 0.3651102912045228 0  0.1583785085108421 0.2994699345738728 0  0.1455283439499995 0.3542795598723423 0  2.2 0.35875 0  0.2347662494194072 0.298325008655211 0  0.1527284455616188 0.1065771775690181 0  0.1382139529076665 0.05427454456341477 0  0.8749341636311069 0.05110114999892954 0  0.643661668713109 0.05693499781019222 0  1.466879772203159 0.3611261772912453 0  1.990280163552011 0.3564754268533217 0  1.17471064520912 0.2990917256188288 0  0.5202693090594349 0.206382495511728 0  0 0.25625 0  2.2 0.25625 0  2.2 0.05125 0  0 0.15375 0  1.853978576207987 0.35875 0  0.9787513713939683 0.1487523696999336 0  0.240625 0.3722153812029779 0  1.515638456102889 0.2882700110184686 0  0.09048297387599738 0.3637717362208066 0  2.150453692751374 0.2387066338105111 0  1.323782677156475 0.04897634338873398 0  0.8074131292871642 0.3624701995505916 0  1.409375 0.03715320121951221 0  1.406484531114799 0.1087852750766809 0  1.134375 0.03715320121951218 0  1.627401732573545 0.04552157221025036 0  0.1170173172005315 0.1427610859166811 0  2.045405893604797 0.1105340662939892 0  1.255408269734577 0.1577307500159216 0  2.028125 0.03707597992059326 0  0.4743610090857199 0.1421513964721819 0  0.9354010469015898 0.250631300585664 0  0.04420832937638274 0.128125 0  0.8922386349349938 0.0992956419364831 0  0.1197849154434487 0.2663398672460083 0  1.248258025468107 0.2565907092181813 0  0.3746885856929528 0.370723531618974 0  1.203125 0.0366132337404304 0  0.5724622277005015 0.2751253816079333 0  0.3365425205162783 0.08395777655057959 0  2.072662025974815 0.2975086504196739 0  0.4581080832182547 0.3648371739579888 0  0.3874522734668214 0.2295447548840689 0  0.7827853612484443 0.04106550386289586 0  1.887722846421017 0.1760882698830035 0  1.472640588990488 0.1118278026240017 0  1.865937103925594 0.2604137786483804 0  1.463913572748262 0.2030442564990043 0  1.376426316059077 0.3186741374914345 0  0.6641993820150034 0.3141688596240831 0  0.2943117490824315 0.2130987422685822 0  0.3478153998082709 0.1666571081082676 0  0.3427990510599805 0.2575950027870776 0  0.7997118993855807 0.2216171933356366 0  
[...]
<PointData  Vectors="f_31"> 
<DataArray  type="Float64"  Name="f_31"  NumberOfComponents="3" format="ascii">2.2573507427389931e-06 4.8920871558536887e-08 0.0000000000000000e+00  -2.3116845389562594e-06 -4.6039910068840219e-09 0.0000000000000000e+00  3.6879541659809816e-06 -2.2632652967938615e-09 0.0000000000000000e+00  -1.6075284674211298e-05 -1.2475533654046375e-08 0.0000000000000000e+00  -3.2831307525524575e-06 -1.6251458798790169e-06 0.0000000000000000e+00  5.7837959221723983e-07 -1.5790155393686003e-05 0.0000000000000000e+00  3.6500645137038856e-06 -6.8742753935126281e-06 0.0000000000000000e+00  -8.0442772464444094e-06 4.1596696979535107e-06 0.0000000000000000e+00  -2.5528343890789329e-06 5.8134314807117728e-06 0.0000000000000000e+00  1.0587444624803920e-05 -1.2554246031814932e-06 0.0000000000000000e+00  -3.0561763265129432e-07 -4.2772535984030667e-06 0.0000000000000000e+00  -1.6894206571257602e-05 -2.5126759440345933e-06 0.0000000000000000e+00  6.1200755256417529e-06 8.8730479148666591e-06 0.0000000000000000e+00  -1.0780566826406804e-05 -4.0207551228604730e-07 0.0000000000000000e+00  -2.3663539550368339e-06 9.8458489023794453e-09 0.0000000000000000e+00  1.6493889797720822e-07 -1.1418565280244991e-08 0.0000000000000000e+00  1.5000043881607232e+00 -2.0921139480832617e-06 0.0000000000000000e+00  -1.3115904821516200e-06 -3.2427765742255704e-06 0.0000000000000000e+00  9.1131611656628896e-06 5.2800267445572684e-07 0.0000000000000000e+00  4.0643743609196988e-06 3.5187935401305303e-07 0.0000000000000000e+00  -4.1169085422629472e-06 6.6628648659794277e-08 0.0000000000000000e+00  4.7647457708841246e-07 2.6526012669347009e-09 0.0000000000000000e+00  5.2021494802461830e-07 -9.5087371655505992e-09 0.0000000000000000e+00  -5.1589568921068422e-06 -1.9871534143353572e-07 0.0000000000000000e+00  -1.0287748061406613e-05 3.3250133174536703e-07 0.0000000000000000e+00  -3.6568995658778223e-06 2.1802248140933867e-09 0.0000000000000000e+00  -6.3200620294052198e-07 6.5653608394780323e-09 0.0000000000000000e+00  -2.7325835963508987e-06 1.0257289451496966e-08 0.0000000000000000e+00  -1.9981588014518147e-06 -2.3525500583207944e-09 0.0000000000000000e+00  1.1502200136052192e+00 2.5057117504586760e-05 0.0000000000000000e+00  1.1503522201145644e+00 3.1262663158747615e-05 0.0000000000000000e+00  1.1091472871345820e+00 7.5099496008034450e-02 0.0000000000000000e+00  1.1531671413458662e+00 -6.4643657148832296e-03 0.0000000000000000e+00  1.1498961693968281e+00 -3.2458920698249702e-04 0.0000000000000000e+00  1.1502621127002983e+00 -5.7704347765833914e-05 0.0000000000000000e+00  -1.6434599146110423e-01 -2.4605467528340991e-01 0.0000000000000000e+00  1.1502736041886783e+00 -4.2781567475410015e-05 0.0000000000000000e+00  3.8876497950030986e-07 2.3954517380895572e-09 0.0000000000000000e+00  -7.8497678135214183e-07 2.5161494069334317e-09 0.0000000000000000e+00  1.1466053122845905e+00 3.6340771992485523e-05 0.0000000000000000e+00  -3.4683590286564968e-06 5.3189714552899162e-07 0.0000000000000000e+00  3.4338106129301794e-06 -3.2770867010264997e-07 0.0000000000000000e+00  -5.6754837527227169e-06 -8.3894873859172862e-09 0.0000000000000000e+00  1.1501001280496486e+00 3.1915383098513831e-06 0.0000000000000000e+00  4.1403084759121837e-07 -5.6066074009965847e-09 0.0000000000000000e+00  -3.9597308850669500e-06 1.6824117944731097e-08 0.0000000000000000e+00  1.1657398599965236e-06 -4.3279623184648297e-09 0.0000000000000000e+00  1.2317254379550691e+00 4.3573030002172455e-02 0.0000000000000000e+00  -1.3522240235638037e-06 2.9677489194372656e-08 0.0000000000000000e+00  2.5948869782520536e-06 1.3466597539732006e-08 0.0000000000000000e+00  -6.4223363907447889e-07 2.7275667716559497e-07 0.0000000000000000e+00  4.7883788883913667e-07 6.3583096243093838e-07 0.0000000000000000e+00  -3.7384527224075127e-06 6.4108733667060562e-07 0.0000000000000000e+00  -5.6635658742420125e-06 -5.2692275740548087e-07 0.0000000000000000e+00  3.8416229757203395e-07 -4.5130486810107235e-10 0.0000000000000000e+00  1.1492610037275905e+00 -1.3487697031457847e-03 0.0000000000000000e+00  -1.4313106871474571e-06 -5.1237088570664840e-09 0.0000000000000000e+00  1.1503928313090852e+00 5.8675360712217741e-05 0.0000000000000000e+00  1.1505789271446569e+00 -7.0469481101797160e-04 0.0000000000000000e+00  1.1499635118843952e+00 7.1574222907147604e-05 0.0000000000000000e+00  1.1483380603722502e+00 -4.3895518086601880e-02 0.0000000000000000e+00  1.1500069232244261e+00 -5.2310409613000405e-05 0.0000000000000000e+00  2.0481699808779341e+00 -6.8384973503001947e-02 0.0000000000000000e+00  1.1499551538613708e+00 -6.9747428636253032e-05 0.0000000000000000e+00  1.1500966218835365e+00 -1.3033650219982051e-04 0.0000000000000000e+00  1.1463832382454311e+00 6.7957968847277416e-05 0.0000000000000000e+00  1.3070495386554455e+00 -1.9844691537391945e-02 0.0000000000000000e+00  1.3547066177529234e+00 1.1594825371337107e-01 0.0000000000000000e+00  1.5197734706949166e+00 1.5359102310059256e-01 0.0000000000000000e+00  1.1249990133625849e+00 -8.1430845239202182e-07 0.0000000000000000e+00  1.1249902299580834e+00 -4.7234645313234505e-07 0.0000000000000000e+00  1.1501497746353053e+00 -6.1501174628605094e-05 0.0000000000000000e+00  1.6580469194872125e+00 3.2601647803376432e-01 0.0000000000000000e+00  6.4232813646735920e-01 -4.3415665279712454e-02 0.0000000000000000e+00  1.5265533978075758e+00 -3.2328813041645876e-01 0.0000000000000000e+00  1.2264494214019268e+00 7.8642950968973210e-02 0.0000000000000000e+00  1.1340942748452316e+00 -3.2422542009998626e-05 0.0000000000000000e+00  1.1470950821307171e+00 -2.5402239223789693e-06 0.0000000000000000e+00  1.1485345991181775e+00 3.7573564267509522e-05 0.0000000000000000e+00  9.8813718084197788e-01 -1.4641072891685067e-01 0.0000000000000000e+00  1.1325813578637924e+00 -4.7488745610273594e-04 0.0000000000000000e+00  1.1502404391818326e+00 5.1073055836842757e-03 0.0000000000000000e+00  1.1450231345471429e+00 -4.9931355798968596e-05 0.0000000000000000e+00  1.1464694617937146e+00 -2.3308169493383487e-04 0.0000000000000000e+00  1.1469804427112027e+00 -1.2138726619506243e-04 0.0000000000000000e+00  1.1465709792755623e+00 -3.2980636151818212e-04 0.0000000000000000e+00  1.1472326704903477e+00 -1.5151433754648642e-04 0.0000000000000000e+00  1.1469433024325904e+00 1.3478212814630499e-04 0.0000000000000000e+00  1.1425766222803651e+00 -3.1961120343341957e-03 0.0000000000000000e+00  1.1170585435942730e+00 8.4939910276725620e-06 0.0000000000000000e+00  1.1163887471932514e+00 -1.1783009436698366e-04 0.0000000000000000e+00  1.1502342809030937e+00 -1.4057614797531111e-05 0.0000000000000000e+00  1.1885783769363982e+00 2.5860430998348050e-01 0.0000000000000000e+00  1.1491620227792749e+00 1.2811226092276248e-04 0.0000000000000000e+00  -5.1466562899210766e-01 1.4633612793716660e-01 0.0000000000000000e+00  1.2185479744488701e+00 -4.9906461994870741e-02 0.0000000000000000e+00  1.1513825480707922e+00 -2.0282957705297384e-03 0.0000000000000000e+00  1.4067460733315702e+00 2.3591640466059033e-01 0.0000000000000000e+00  1.1500195620087001e+00 -2.5501991516882276e-05 0.0000000000000000e+00  1.8747203801914358e+00 -1.0662999815784205e-01 0.0000000000000000e+00  1.1398201510315962e+00 -2.4732623334904863e-01 0.0000000000000000e+00  -5.1405224541586117e-07 6.8653929673212697e-09 0.0000000000000000e+00  1.0971218718560387e+00 1.4038935768438432e-04 0.0000000000000000e+00  -1.6088541723233355e-06 8.7137841791278626e-09 0.0000000000000000e+00  -7.1813109773175371e-06 -6.1846840843359008e-08 0.0000000000000000e+00  1.1503131515531624e+00 1.5265221755425899e-05 0.0000000000000000e+00  2.3230255524734719e-06 -5.2793019456532938e-07 0.0000000000000000e+00  1.1157190188924102e+00 -9.7866024634083565e-05 0.0000000000000000e+00  -2.2512691211821121e-06 1.9348072873516245e-10 0.0000000000000000e+00  -1.9041068121888280e-06 6.1624375387830575e-09 0.0000000000000000e+00  1.1239784384601375e+00 -2.0694192831926881e-05 0.0000000000000000e+00  -1.3663822230559878e-06 2.2609192220004437e-07 0.0000000000000000e+00  1.7065275150178232e+00 -3.9952443693983575e-01 0.0000000000000000e+00  1.5209366585824822e+00 -2.8001397091181335e-01 0.0000000000000000e+00  1.1452212179326029e+00 -1.3037154971825412e-02 0.0000000000000000e+00  1.3352935614620982e+00 -1.0225666097146795e-01 0.0000000000000000e+00  1.4967861201330561e+00 -3.9688559884155961e-01 0.0000000000000000e+00  1.3737459378795436e+00 1.2978117613542092e-01 0.0000000000000000e+00  1.2366708361408167e+00 3.0374222123779632e-01 0.0000000000000000e+00  1.1500565541295682e+00 2.6570670734788336e-05 0.0000000000000000e+00  1.1160770112900320e+00 -1.4939609185471737e-04 0.0000000000000000e+00  -5.9669922557472433e-07 1.4452400697097812e-09 0.0000000000000000e+00  1.0956318808701735e+00 3.3989541559602439e-02 0.0000000000000000e+00  1.1645486269174892e+00 -1.7579811671438197e-02 0.0000000000000000e+00  1.1502842825379771e+00 8.3400612615419122e-05 0.0000000000000000e+00  1.1498951981588692e+00 -7.6393060677613282e-04 0.0000000000000000e+00  1.1157603757165488e+00 -3.2131587689679289e-04 0.0000000000000000e+00  -2.5716418097220706e-06 9.4594069566151474e-09 0.0000000000000000e+00  1.1500118916807724e+00 -1.1873660896765580e-04 0.0000000000000000e+00  1.1163423613256711e+00 3.8072065306001056e-05 0.0000000000000000e+00  1.6787733575571275e+00 9.4301769392659787e-02 0.0000000000000000e+00  1.1497884559223701e+00 -3.0370038510885454e-04 0.0000000000000000e+00  1.1494450916870100e+00 -3.5859801297126004e-03 0.0000000000000000e+00  -7.3743493085883012e-06 -1.5498093240188551e-06 0.0000000000000000e+00  -1.2739410805561665e-05 -1.4958597681204143e-09 0.0000000000000000e+00  1.3530599651599520e+00 -1.7412260382199972e-02 0.0000000000000000e+00  1.3498063480140552e+00 -1.8924791393375176e-02 0.0000000000000000e+00  1.5715605699883484e+00 -2.2835390604398959e-01 0.0000000000000000e+00  1.1535869698641212e+00 -1.4614691582165381e-03 0.0000000000000000e+00  -2.9877250316708502e-06 -2.7105970567871700e-07 0.0000000000000000e+00  6.5625066625912387e-01 -2.1175941920402450e-07 0.0000000000000000e+00  1.0651471816237734e+00 -4.1830833333202323e-03 0.0000000000000000e+00  1.2937551447291995e+00 -1.6544228214138465e-01 0.0000000000000000e+00  1.4505801911524308e+00 2.6253081395345679e-01 0.0000000000000000e+00  -4.4906141903186935e-06 5.4764662278278930e-09 0.0000000000000000e+00  1.1104687497890389e+00 6.5858562136657961e-05 0.0000000000000000e+00  1.1502690611206936e+00 -1.7286819258172892e-05 0.0000000000000000e+00  -3.3846324258128517e-06 1.4954445899462655e-09 0.0000000000000000e+00  -1.0008734588421182e-05 3.7031750131665958e-09 0.0000000000000000e+00  -3.9099461594974564e-06 -1.7482079654534704e-08 0.0000000000000000e+00  1.7246928906889834e-06 8.6035019242635091e-09 0.0000000000000000e+00  -2.0869174113624200e-06 -1.5770519204332891e-09 0.0000000000000000e+00  -9.6527871054127399e-06 2.3055565786489105e-06 0.0000000000000000e+00  6.6731166965090186e-08 1.9303937789940558e-07 0.0000000000000000e+00  -5.0301783939823571e-06 1.4998816877813074e-07 0.0000000000000000e+00  7.5780953024301941e-06 8.4829748781943374e-08 0.0000000000000000e+00  9.2384049657686913e-07 7.8419680543909277e-07 0.0000000000000000e+00  -4.4463855860620938e-06 -3.8880695884405693e-07 0.0000000000000000e+00  9.2402272817303552e-07 1.6272025864370581e-07 0.0000000000000000e+00  -1.1244851211834636e-07 4.0279389633828204e-09 0.0000000000000000e+00  1.3386496299343338e-05 -1.0274006451874097e-06 0.0000000000000000e+00  1.5359695608978743e-06 1.5537647814362104e-07 0.0000000000000000e+00  -7.6771304821218618e-07 -1.8244332880993381e-08 0.0000000000000000e+00  -7.1256173503335231e-06 -1.0702343837615379e-08 0.0000000000000000e+00  -2.1008788315646686e-06 4.0838390965030414e-09 0.0000000000000000e+00  -6.3237288183999946e-07 3.5592649008532685e-09 0.0000000000000000e+00  1.0669229822807786e+00 7.3654172883214861e-05 0.0000000000000000e+00  1.0677445865870818e+00 -2.6924406051585873e-04 0.0000000000000000e+00  1.0906341475387944e+00 1.2930736404400656e-04 0.0000000000000000e+00  1.1081234337442800e+00 -2.2067366425605793e-04 0.0000000000000000e+00  1.1503213648771642e+00 7.3194488705038694e-05 0.0000000000000000e+00  1.1500336445119002e+00 -1.5515938900665898e-04 0.0000000000000000e+00  1.0337407943058250e+00 -5.6744945021508147e-02 0.0000000000000000e+00  1.0495960577810179e+00 2.0740517141654441e-05 0.0000000000000000e+00  -6.0844264196839937e-01 7.0907992074208823e-02 0.0000000000000000e+00  1.5686790122806682e+00 1.3261283994770420e-01 0.0000000000000000e+00  2.5970168043734171e-01 -8.2066102718983097e-02 0.0000000000000000e+00  1.1502598216254771e+00 -7.1223175614738469e-05 0.0000000000000000e+00  1.1503577929319522e+00 -6.4691965357365980e-05 0.0000000000000000e+00  1.1503379489147136e+00 -6.1975668487029975e-05 0.0000000000000000e+00  1.1502848870579780e+00 -2.3111232894063544e-05 0.0000000000000000e+00  1.0650159037233218e+00 3.2985410650940888e-05 0.0000000000000000e+00  1.0901811833758699e+00 -1.1511875363751964e-04 0.0000000000000000e+00  1.0501914254354123e+00 6.4076774874140561e-05 0.0000000000000000e+00  1.1435357416903451e+00 6.2074495817878903e-05 0.0000000000000000e+00  1.1102582079651655e+00 1.2271328821717407e-01 0.0000000000000000e+00  8.1343874318292719e-01 -9.9968117069460932e-02 0.0000000000000000e+00  6.4355132642199808e-01 9.8311340016683818e-02 0.0000000000000000e+00  1.1502458641180406e+00 5.3865748031407277e-05 0.0000000000000000e+00  1.1499283703389898e+00 -8.9206582443932561e-05 0.0000000000000000e+00  1.1501253556069535e+00 -1.9815675987710655e-05 0.0000000000000000e+00  1.0956375603350512e+00 5.1219504947068132e-05 0.0000000000000000e+00  1.1502593609930301e+00 7.1318834469987058e-05 0.0000000000000000e+00  1.1502724173517533e+00 -4.1419658776774477e-04 0.0000000000000000e+00  1.0783627658583257e+00 6.9263673435114521e-05 0.0000000000000000e+00  1.1501079566051247e+00 4.4913438093600549e-05 0.0000000000000000e+00  1.0699556802136942e+00 9.7571081356342905e-05 0.0000000000000000e+00  1.4870290233504342e+00 2.2881493343410542e-02 0.0000000000000000e+00  6.5624822763185797e-01 -2.3113014847491474e-07 0.0000000000000000e+00  7.1717148121647845e-01 5.9516711866612879e-02 0.0000000000000000e+00  1.4583262628340357e+00 1.7317383282291832e-01 0.0000000000000000e+00  1.6451015192763390e+00 3.1905501938662251e-01 0.0000000000000000e+00  1.0215283249689180e+00 -4.6908758192521311e-05 0.0000000000000000e+00  1.1675448835434175e+00 -4.0089596258760553e-02 0.0000000000000000e+00  1.1500892955921111e+00 -1.4831961904663794e-03 0.0000000000000000e+00  1.1494994191262065e+00 -7.6116172211324507e-05 0.0000000000000000e+00  1.1500193163676653e+00 -8.5574089294711664e-06 0.0000000000000000e+00  1.1499177435080135e+00 -6.2944067913688710e-05 0.0000000000000000e+00  1.2173222903068563e+00 1.6645137778002059e-01 0.0000000000000000e+00  8.7642173163769377e-01 1.2845547145212780e-01 0.0000000000000000e+00  7.1722596996650312e-01 4.1947802925186496e-02 0.0000000000000000e+00  1.1502907117666106e+00 1.6337385131771326e-06 0.0000000000000000e+00  1.1494047777578003e+00 -2.1271524617145088e-05 0.0000000000000000e+00  1.4289678898005205e+00 -3.8113344788270130e-02 0.0000000000000000e+00  1.1501171838233128e+00 -7.1637042040282082e-05 0.0000000000000000e+00  7.8760750637740018e-01 -1.0285776083177756e-01 0.0000000000000000e+00  1.0374208566867813e+00 6.4769042041296066e-05 0.0000000000000000e+00  7.3903547734372743e-01 7.4256888929558104e-02 0.0000000000000000e+00  9.4206588705338890e-01 9.4805510237454996e-02 0.0000000000000000e+00  6.0232504108796470e-01 -1.2078443289636517e-02 0.0000000000000000e+00  1.5539735151848191e+00 2.9873598000654789e-01 0.0000000000000000e+00  1.1501466858194538e+00 9.3306953883061735e-05 0.0000000000000000e+00  1.1715360622266364e+00 5.7330962363042869e-03 0.0000000000000000e+00  1.2239094583584691e+00 1.7529104084597857e-01 0.0000000000000000e+00  1.0698503803983137e+00 -1.4622367942558096e-05 0.0000000000000000e+00  1.1315047323791874e+00 -1.7007586458372140e-04 0.0000000000000000e+00  1.1494384528478179e+00 -5.6411235641316696e-04 0.0000000000000000e+00  1.1499798281302895e+00 -2.1315419817441583e-04 0.0000000000000000e+00  1.4103023598420736e+00 1.5945436251651218e-02 0.0000000000000000e+00  1.1498144875804654e+00 4.2532863157861198e-05 0.0000000000000000e+00  1.1500376115475208e+00 -2.3904304014681312e-05 0.0000000000000000e+00  1.1496803614541700e+00 -5.6439547313745831e-05 0.0000000000000000e+00  1.1476453334212071e+00 -2.0426867511124029e-03 0.0000000000000000e+00  9.4754685175524245e-01 -2.9226817275392281e-04 0.0000000000000000e+00  9.4753341099107147e-01 -2.2129873586972050e-04 0.0000000000000000e+00  1.0000180032433292e+00 -6.8597201921636198e-04 0.0000000000000000e+00  1.0432753131532695e+00 -2.3838649625610098e-04 0.0000000000000000e+00  1.0728779858121467e+00 -3.2764875286226602e-05 0.0000000000000000e+00  1.1494024894395618e+00 -4.9709222688015910e-05 0.0000000000000000e+00  9.8634255233249069e-01 -1.3873851977069630e-04 0.0000000000000000e+00  1.1503768914142083e+00 1.6325448841403420e-05 0.0000000000000000e+00  1.1498343979784094e+00 -1.9700723475812273e-05 0.0000000000000000e+00  1.3432398320376613e+00 -9.3312022205621126e-02 0.0000000000000000e+00  1.1502283351382994e+00 -5.4769653626331469e-05 0.0000000000000000e+00  1.1499428706828463e+00 1.5711891284537069e-05 0.0000000000000000e+00  1.1678888281291318e+00 -1.3395281091351849e-01 0.0000000000000000e+00  8.9527293224974780e-01 -3.0854656164174503e-04 0.0000000000000000e+00  1.1437361938816404e+00 -5.7141803509321791e-04 0.0000000000000000e+00  1.5681715468411481e+00 -5.4898657633653236e-01 0.0000000000000000e+00  1.0269137400929387e+00 1.9965692867982517e-04 0.0000000000000000e+00  7.3800226658549806e-01 -7.8186777970144075e-02 0.0000000000000000e+00  1.4852836432430530e+00 -3.7887108454141623e-02 0.0000000000000000e+00  1.0149082046561453e+00 5.0320445050761791e-03 0.0000000000000000e+00  9.3996600348449433e-01 1.4477678342382174e-04 0.0000000000000000e+00  1.5356137617257577e+00 4.7927493164459645e-01 0.0000000000000000e+00  1.0094174858719800e+00 1.8315337572655585e-01 0.0000000000000000e+00  1.0009929019689312e+00 1.3792123338825235e-04 0.0000000000000000e+00  1.9158441891674534e+00 2.6487073273450146e-01 0.0000000000000000e+00  1.4556387087068661e+00 -5.0940477263232808e-01 0.0000000000000000e+00  9.7577209077806104e-01 -1.9105308563610249e-01 0.0000000000000000e+00  9.7913088125500802e-01 -1.0912350558019496e-02 0.0000000000000000e+00  7.4392248070046529e-01 -4.5791985437722720e-02 0.0000000000000000e+00  9.8057608152788567e-01 4.4426278338508408e-05 0.0000000000000000e+00  1.0199150210890540e+00 5.7341006376990616e-05 0.0000000000000000e+00  1.1491879408584764e+00 -3.7373150898265017e-04 0.0000000000000000e+00  2.3891246648307946e-01 -2.2648206248126102e-01 0.0000000000000000e+00  1.4062434298733382e+00 -1.8649142889275340e-06 0.0000000000000000e+00  1.1502482639761153e+00 5.6221100733823615e-05 0.0000000000000000e+00  1.0018476769665092e+00 -6.7205251485383374e-04 0.0000000000000000e+00  1.4062432104830174e+00 -1.6119986085597152e-06 0.0000000000000000e+00  1.0017131839752236e+00 -8.1367760656139766e-06 0.0000000000000000e+00  1.1478560031788894e+00 -6.5246069138302802e-03 0.0000000000000000e+00  1.1567073048642478e+00 6.6449436706744469e-02 0.0000000000000000e+00  1.1497116884890501e+00 -3.2017058216684147e-05 0.0000000000000000e+00  7.1613940041723401e-01 1.0001767921162454e-01 0.0000000000000000e+00  1.1501697352678566e+00 -1.4121748901018381e-05 0.0000000000000000e+00  9.8169682033860328e-01 -2.5507124624576065e-04 0.0000000000000000e+00  9.0438832114236067e-01 4.1944370678444511e-02 0.0000000000000000e+00  8.4175430281740704e-01 7.9577445834420381e-05 0.0000000000000000e+00  1.1484824985100519e+00 -9.8847649930562626e-06 0.0000000000000000e+00  8.4218115580456365e-01 -2.9254823435927221e-06 0.0000000000000000e+00  9.46122541686