<?xml version="1.0"?>
<VTKFile type="UnstructuredGrid"  version="0.1"  >
<UnstructuredGrid>
<Piece  NumberOfPoints="2446" NumberOfCells="4585">
<Points>
<DataArray  type="Float64"  NumberOfComponents="3"  format="ascii">0 0.41 0  0 0 0  2.2 0 0  2.2 0.41 0  0.2404508497187474 0.2293892626146237 0  0.25 0.2 0  0.2404508497187474 0.1706107373853764 0  0.2154508497187474 0.1524471741852423 0  0.1845491502812526 0.1524471741852423 0  0.1595491502812526 0.1706107373853764 0  0.15 0.2 0  0.1595491502812526 0.2293892626146237 0  0.1845491502812527 0.2475528258147577 0  0.2154508497187474 0.2475528258147577 0  1.1 0 0  1.1 0.41 0  0 0.205 0  0.55 0 0  0.55 0.41 0  0.275 0 0  0.275 0.41 0  1.65 0.41 0  1.65 0 0  0.8250000000000001 0.41 0  0.8250000000000001 0 0  1.375 0 0  1.375 0.41 0  1.925 0 0  1.925 0.41 0  1.5125 0.205 0  1.7875 0.205 0  0.6875 0.205 0  0.9625000000000001 0.205 0  1.2375 0.205 0  2.2 0.205 0  0.4687002074688797 0.2068568464730291 0  1.99375 0.2152743902439024 0  2.0625 0 0  2.0625 0.41 0  2.2 0.3075 0  0.4125 0 0  0.4125 0.41 0  1.7875 0.41 0  1.375 0.1486128048780488 0  1.5125 0 0  1.7875 0 0  1.5125 0.41 0  0.8250000000000001 0.2613871951219511 0  0.9625000000000001 0.41 0  0.9625000000000001 0 0  0.6875 0.41 0  0.6875 0 0  0.1375 0 0  0.1375 0.41 0  1.2375 0 0  1.1 0.1486128048780487 0  1.2375 0.41 0  1.65 0.1486128048780487 0  1.126715909090909 0.2793064024390244 0  1.676715909090909 0.2793064024390244 0  0.8517159090909092 0.1306935975609756 0  1.348284090909091 0.2793064024390244 0  0.34375 0.3032389320646208 0  1.894702181800738 0.1282910975492754 0  2.092797818199262 0.1282910975492754 0  1.85625 0.3075 0  0.61875 0.3075 0  0.61875 0.1025 0  0.3648540804333487 0.1240075933101478 0  0 0.3075 0  0 0.1025 0  2.099172119769978 0.25625 0  0.48125 0.09238439620688085 0  0.5781001037344399 0.2059284232365146 0  0.48125 0.3196743479159776 0  0.7265881057911006 0.3055240343720796 0  1.99375 0.08395950269330846 0  1.459960956013612 0.3075 0  1.569025960719943 0.2986889805672169 0  0.75625 0.08213100772579164 0  1.03125 0.3278689922742084 0  0.923871252904788 0.3078247185783941 0  1.959375 0.3126371951219512 0  1.749222215368287 0.1025 0  1.275777784631713 0.1025 0  2.2 0.1025 0  1.225938124459196 0.3075 0  1.550777784631713 0.1025 0  1.000777784631713 0.1025 0  1.44375 0.07430640243902442 0  1.16875 0.07430640243902437 0  1.899250267340833 0.2229966846119207 0  0.1020898364287272 0.3140258291809757 0  1.766482954545455 0.2934032012195123 0  0.3405058858996321 0.2119987970531874 0  0.7710785630958338 0.1710968191298857 0  1.046078563095834 0.2389031808701144 0  0.2 0.3400647632937836 0  1.421109702350723 0.2261157654379721 0  0.2800464974185557 0.08982544815605742 0  0.098916018031319 0.09171660955420841 0  2.13125 0 0  2.118919042110979 0.3422084711244843 0  1.30625 0.41 0  0.89375 0 0  1.597888256393107 0.2173787389261347 0  0.20625 0 0  1.829299675393195 0.07400700849299596 0  1.71875 0.41 0  1.16875 0.41 0  2.038220665644273 0.332420740103091 0  0.34375 0 0  0.417496017710808 0.2696595573092803 0  0.2 0.07687845740457822 0  0.9295982307099278 0.1343158415898188 0  0.07390688010811153 0.1697064032433452 0  0.5238366813727013 0.2578302467013575 0  0.05452951551825875 0.25625 0  0.5229630068078351 0.1548816096928243 0  1.452769549894695 0.1548122580621249 0  1.369219062229598 0.07430640243902442 0  1.30625 0 0  0.8504409521244898 0.3356935975609756 0  0.8821881244591965 0.205 0  1.720943423819132 0.1714577452753128 0  1.157188124459196 0.205 0  1.094219062229598 0.07430640243902437 0  1.03125 0 0  1.304056576180868 0.1714577452753128 0  1.67579304192913 0.07430640243902437 0  0.2751941921308361 0.3346083473122598 0  1.209670467133757 0.1362100266964769 0  1.025335513626278 0.1700681449722324 0  0.7562500000000001 0.41 0  1.58125 0 0  0.7567170593862014 0.2409196493502535 0  0.6926714215682891 0.1272249611432207 0  0.4139715849905988 0.3397932387114203 0  0.9840787304190477 0.2717749043358119 0  0.06875000000000001 0.41 0  0 0.35875 0  0.9281250000000001 0.06276726142697993 0  0.5507396469029935 0.3219409231578227 0  0.5504468037989405 0.09136885600634273 0  1.58125 0.41 0  1.631724228912893 0.3381867502687533 0  1.825608881788174 0.14499488549201 0  1.85625 0 0  1.44375 0 0  1.44375 0.41 0  1.85625 0.41 0  2.13125 0.41 0  0.7562500000000001 0 0  0.89375 0.41 0  0.4812500000000001 0 0  0.34375 0.41 0  0.4812500000000001 0.41 0  0.20625 0.41 0  0.06875000000000001 0 0  1.16875 0 0  0.61875 0 0  0.61875 0.41 0  1.03125 0.41 0  1.71875 0 0  1.99375 0 0  1.99375 0.41 0  1.340625 0.3489494290853124 0  1.134375 0.3489494290853123 0  1.700180620188976 0.3438659752031281 0  2.135782184673599 0.07126652247502523 0  1.668441847249787 0.2129203728327609 0  1.295782514339747 0.2378437748815763 0  0.8233075729931248 0.06842334294821524 0  1.409375 0.3520314716057996 0  0.403505597322782 0.182067236678212 0  0.378125 0.05794951541303489 0  0.3043468223249023 0.1518321115979534 0  2.129248544730567 0.1906135162504124 0  2.060771381434487 0.1989445750470348 0  2.013252586573865 0.1496169464686054 0  1.942766402200229 0.1734448904596831 0  1.895522487186454 0.06076163953489683 0  2.069553871656643 0.06605731020975725 0  1.274680914880868 0.3520219391081363 0  1.614713220494657 0.09473434380863296 0  0.7899021319497519 0.3149123934144827 0  0.69518737419149 0.0634051089053758 0  0.2971740475496061 0.2592172353407536 0  1.72990325744076 0.2380068107952482 0  1.356580098625191 0.2120393231351682 0  2.034370752044885 0.2668681600792073 0  1.51768709249349 0.3426260931494756 0  1.561883724969884 0.1650446847858835 0  1.197344062229598 0.2523725417393646 0  1.804085235518364 0.3468178408964637 0  1.817887819205233 0.2589243285818559 0  1.905897727272727 0.3485060975609756 0  0.6719798073392919 0.2688965171178177 0  0 0.05125 0  0.653125 0.35875 0  0.6396896119294488 0.1627615407790282 0  0.4274150154087412 0.1242548552168279 0  1.192836486056382 0.3562350748565544 0  0.8279124365364005 0.183856489168822 0  1.097485222388854 0.2083571153401724 0  1.28257088594801 0.2944411014911587 0  1.474860187679412 0.2504218616229368 0  1.406767003493824 0.2829282258560709 0  0.446875 0.04619219810344041 0  0.515625 0.04585361801037557 0  0.592043440706648 0.05125 0  1.845656689180403 0.1998310418452388 0  2.144958525570388 0.2909790873294231 0  0.6171090763650112 0.2492366900333857 0  2.2 0.15375 0  0.5145586920831158 0.3648371739579888 0  1.57794966442982 0.3540357145964566 0  0.721875 0.3633107922168974 0  0.0496154796471391 0.333125 0  0.5843750000000001 0.3662560860076676 0  0.5810878747760798 0.1474002776121195 0  1.508991196088596 0.1421783375065625 0  0.8840670607017558 0.2640994375393898 0  0.09776612425612034 0.2204896805326566 0  1.50436820029908 0.06143401634903343 0  1.223857000523521 0.0823554862453532 0  1.153316824384777 0.1289850171317837 0  2.148922302309752 0.1258841779285271 0  0.309375 0.04312325590431198 0  1.621993280276081 0.2841214267927899 0  1.550118654119087 0.2461998729100966 0  1.327182649291491 0.1216967252533594 0  1.051977450479407 0.1221382572915816 0  1.753125 0.04556020050186112 0  1.271875 0.04556020050186116 0  0.9816084133102366 0.05126138213476004 0  1.039051841454368 0.0572224914831029 0  0.9719230514536006 0.3480477870845102 0  1.94956388244759 0.1180512551534177 0  1.949997712993411 0.04965831614304109 0  1.771961817615021 0.1530278789497521 0  1.909246823951428 0.2812757146784527 0  0.2459536687882397 0.04668633953831142 0  1.948575539857022 0.2445328248721197 0  1.697271520964565 0.1233917627620729 0  0.7964897648514618 0.1211426571931604 0  1.065625 0.3689344961371042 0  1.085849084308977 0.3170853572226867 0  0.4702981435440001 0.260434880697798 0  1.577403511714593 0.05463601888079143 0  0.05622663515370135 0.05493816910862376 0  0.3267207591099919 0.3566194660323104 0  0.9003051618565143 0.3564049499960621 0  1.751571320346033 0.3651102912045228 0  0.1583785085108421 0.2994699345738728 0  0.1455283439499995 0.3542795598723423 0  2.2 0.35875 0  0.2347662494194072 0.298325008655211 0  0.1527284455616188 0.1065771775690181 0  0.1382139529076665 0.05427454456341477 0  0.8749341636311069 0.05110114999892954 0  0.643661668713109 0.05693499781019222 0  1.466879772203159 0.3611261772912453 0  1.990280163552011 0.3564754268533217 0  1.17471064520912 0.2990917256188288 0  0.5202693090594349 0.206382495511728 0  0 0.25625 0  2.2 0.25625 0  2.2 0.05125 0  0 0.15375 0  1.853978576207987 0.35875 0  0.9787513713939683 0.1487523696999336 0  0.240625 0.3722153812029779 0  1.515638456102889 0.2882700110184686 0  0.09048297387599738 0.3637717362208066 0  2.150453692751374 0.2387066338105111 0  1.323782677156475 0.04897634338873398 0  0.8074131292871642 0.3624701995505916 0  1.409375 0.03715320121951221 0  1.406484531114799 0.1087852750766809 0  1.134375 0.03715320121951218 0  1.627401732573545 0.04552157221025036 0  0.1170173172005315 0.1427610859166811 0  2.045405893604797 0.1105340662939892 0  1.255408269734577 0.1577307500159216 0  2.028125 0.03707597992059326 0  0.4743610090857199 0.1421513964721819 0  0.9354010469015898 0.250631300585664 0  0.04420832937638274 0.128125 0  0.8922386349349938 0.0992956419364831 0  0.1197849154434487 0.2663398672460083 0  1.248258025468107 0.2565907092181813 0  0.3746885856929528 0.370723531618974 0  1.203125 0.0366132337404304 0  0.5724622277005015 0.2751253816079333 0  0.3365425205162783 0.08395777655057959 0  2.072662025974815 0.2975086504196739 0  0.4581080832182547 0.3648371739579888 0  0.3874522734668214 0.2295447548840689 0  0.7827853612484443 0.04106550386289586 0  1.887722846421017 0.1760882698830035 0  1.472640588990488 0.1118278026240017 0  1.865937103925594 0.2604137786483804 0  1.463913572748262 0.2030442564990043 0  1.376426316059077 0.3186741374914345 0  0.6641993820150034 0.3141688596240831 0  0.2943117490824315 0.2130987422685822 0  0.3478153998082709 0.1666571081082676 0  0.3427990510599805 0.2575950027870776 0  0.7997118993855807 0.2216171933356366 0  
[...]
<PointData  Vectors="f_31"> 
<DataArray  type="Float64"  Name="f_31"  NumberOfComponents="3" format="ascii">2.2372315291622050e-06 3.8134857766887564e-08 0.0000000000000000e+00  -2.3020948483265722e-06 -2.7673775688404949e-08 0.0000000000000000e+00  3.7262115753215271e-06 -1.5170953292127910e-09 0.0000000000000000e+00  -1.6164427748897029e-05 -1.0833558217825475e-08 0.0000000000000000e+00  -3.3223084864599550e-06 -3.3166192706004104e-06 0.0000000000000000e+00  -4.3757154805077197e-09 -1.9376311529988122e-05 0.0000000000000000e+00  3.2044122143976852e-06 -1.0555259346729181e-05 0.0000000000000000e+00  -6.7003755426186227e-06 4.8324734232233098e-06 0.0000000000000000e+00  -6.1982734583156270e-07 5.5501054334194729e-06 0.0000000000000000e+00  1.0339116386900013e-05 -2.2916452794393372e-06 0.0000000000000000e+00  -2.2471456782839881e-07 -3.9902990038295735e-06 0.0000000000000000e+00  -1.7504327412049797e-05 -3.4273390826593231e-06 0.0000000000000000e+00  4.1947436324651902e-06 8.4901275248919102e-06 0.0000000000000000e+00  -1.2050065624211301e-05 2.5322044315858586e-07 0.0000000000000000e+00  -2.4427152048826643e-06 7.8190868805907247e-09 0.0000000000000000e+00  1.1670194997236106e-07 -4.7677390998870614e-09 0.0000000000000000e+00  1.5000043739894402e+00 -2.1947073576942069e-06 0.0000000000000000e+00  7.4264069812744255e-06 -3.0772556888886942e-06 0.0000000000000000e+00  8.1203479871292179e-06 5.7254839140599604e-07 0.0000000000000000e+00  2.9563403140698966e-06 3.6776774191872823e-07 0.0000000000000000e+00  -3.1562926540532347e-06 5.9429508161831056e-08 0.0000000000000000e+00  4.5291615423565757e-07 -1.3559543793349862e-09 0.0000000000000000e+00  4.7729736656165446e-07 -1.3468885147273019e-08 0.0000000000000000e+00  -1.6867896403300457e-06 1.4272322743680423e-07 0.0000000000000000e+00  -6.9561247327915791e-06 -5.4446418215281567e-08 0.0000000000000000e+00  -3.7085802081611376e-06 4.4861102954849835e-10 0.0000000000000000e+00  -6.6744196193006147e-07 3.8524826673057768e-09 0.0000000000000000e+00  -2.7945740873095042e-06 1.5986824283265347e-08 0.0000000000000000e+00  -2.0693931320670174e-06 -6.1141031006830766e-09 0.0000000000000000e+00  1.1452851625994351e+00 3.2076653103504474e-05 0.0000000000000000e+00  1.1453999112352937e+00 2.7664452204861279e-05 0.0000000000000000e+00  1.1443389212788553e+00 1.0114239793384614e-02 0.0000000000000000e+00  1.1469995902852950e+00 -4.0280028380834353e-03 0.0000000000000000e+00  1.1449634517264491e+00 -2.0781258480965197e-04 0.0000000000000000e+00  1.1452880998872441e+00 -4.8577280301183895e-05 0.0000000000000000e+00  -1.9460504957104671e-01 -2.4734320865765785e-01 0.0000000000000000e+00  1.1453091926767622e+00 -4.8650942353464023e-05 0.0000000000000000e+00  3.6992327780468648e-07 2.6855692788054209e-09 0.0000000000000000e+00  -8.0294260012423784e-07 1.6889013887571053e-09 0.0000000000000000e+00  1.1424809746766165e+00 -9.0425410222648699e-06 0.0000000000000000e+00  -4.2299155382076139e-06 3.4938626163551910e-07 0.0000000000000000e+00  3.9959667715423630e-06 -4.0862626476956096e-07 0.0000000000000000e+00  -5.7745687049241999e-06 -9.3595874375623030e-09 0.0000000000000000e+00  1.1451595143291524e+00 6.9827336110146369e-06 0.0000000000000000e+00  2.9114116540053709e-07 -6.2770616610836539e-09 0.0000000000000000e+00  -4.0281676769784076e-06 1.4356053263179010e-08 0.0000000000000000e+00  1.1290558934943436e-06 -6.6737202505945808e-09 0.0000000000000000e+00  1.1803103893930433e+00 1.2173710580496908e-02 0.0000000000000000e+00  -1.4118962770658711e-06 3.4942271879288633e-09 0.0000000000000000e+00  2.4986270451559640e-06 1.3430261843800023e-08 0.0000000000000000e+00  -1.4124150373673747e-06 -3.0659530380985684e-07 0.0000000000000000e+00  -6.8945177802992020e-06 1.5842911841115314e-06 0.0000000000000000e+00  -3.5101288620252835e-06 6.1838252838869243e-07 0.0000000000000000e+00  -5.8446702447725993e-06 -5.4350085898379055e-07 0.0000000000000000e+00  3.6330144584147009e-07 1.0458584296175979e-09 0.0000000000000000e+00  1.1446378600718385e+00 -8.8074796568602884e-04 0.0000000000000000e+00  -1.4793144705366849e-06 -3.8240077164903418e-09 0.0000000000000000e+00  1.1454546584610674e+00 5.2987287349201521e-05 0.0000000000000000e+00  1.1454779878956258e+00 -4.5776890171498572e-04 0.0000000000000000e+00  1.1450749787782657e+00 7.9471966526908677e-05 0.0000000000000000e+00  1.1413773324244620e+00 -2.6078817007778900e-02 0.0000000000000000e+00  1.1450937529844485e+00 -3.0089923792476390e-05 0.0000000000000000e+00  2.0411809340172287e+00 -9.8801735195714988e-02 0.0000000000000000e+00  1.1450848936976863e+00 -6.8106824054567776e-05 0.0000000000000000e+00  1.1452282025883529e+00 -1.4317283495139801e-04 0.0000000000000000e+00  1.1422548273635837e+00 3.9113242545388020e-05 0.0000000000000000e+00  1.2975896841595163e+00 -6.3060662320576898e-03 0.0000000000000000e+00  1.2827790649830582e+00 5.9018842934163290e-02 0.0000000000000000e+00  1.5206069322204621e+00 1.4152901791315450e-01 0.0000000000000000e+00  1.1249989910385985e+00 -9.0922581816886700e-07 0.0000000000000000e+00  1.1249902228122486e+00 -6.0479066818252305e-07 0.0000000000000000e+00  1.1451967148525961e+00 -5.1617719369158836e-05 0.0000000000000000e+00  1.6401338560114485e+00 3.5251518278111860e-01 0.0000000000000000e+00  7.1836346100118975e-01 4.4622359261041869e-02 0.0000000000000000e+00  1.4901010522868534e+00 -2.9394029223665918e-01 0.0000000000000000e+00  1.1811886258415332e+00 1.0392094582806388e-01 0.0000000000000000e+00  1.1321781835006699e+00 -2.1025166567302365e-06 0.0000000000000000e+00  1.1429352852820565e+00 -3.2339333273805285e-05 0.0000000000000000e+00  1.1439857548904899e+00 7.7189934751558094e-05 0.0000000000000000e+00  1.0378716108227808e+00 -1.2810046190661556e-01 0.0000000000000000e+00  1.1304867921993245e+00 -1.7515695012254522e-04 0.0000000000000000e+00  1.1451276865253828e+00 2.0127964216076688e-03 0.0000000000000000e+00  1.1413001248137384e+00 -4.0426230931032247e-05 0.0000000000000000e+00  1.1422703444628226e+00 -2.6658973684779959e-04 0.0000000000000000e+00  1.1429003345093531e+00 -1.1828655701809987e-04 0.0000000000000000e+00  1.1424212618442413e+00 -3.0206605502803782e-04 0.0000000000000000e+00  1.1430017145836333e+00 -4.8998951064817152e-05 0.0000000000000000e+00  1.1428164555366387e+00 1.5146126874675679e-04 0.0000000000000000e+00  1.1402214659084133e+00 -2.0693268692412699e-03 0.0000000000000000e+00  1.1173206874404966e+00 1.8797466085922949e-05 0.0000000000000000e+00  1.1168012189924175e+00 -7.6107225850474656e-05 0.0000000000000000e+00  1.1453002355093431e+00 -1.4517897605996536e-05 0.0000000000000000e+00  1.1900648342516869e+00 2.6026992358071183e-01 0.0000000000000000e+00  1.1444181051338962e+00 1.1526664636366686e-04 0.0000000000000000e+00  -5.1248711254243495e-01 1.1045416001484672e-01 0.0000000000000000e+00  1.1796700662907009e+00 -5.4547525731646437e-02 0.0000000000000000e+00  1.1459945180310063e+00 -1.3096296044199677e-03 0.0000000000000000e+00  1.4091659611961276e+00 2.3407330501284698e-01 0.0000000000000000e+00  1.1450665499391737e+00 -2.0808645002102436e-05 0.0000000000000000e+00  1.8712770428389152e+00 -1.1006738513478340e-01 0.0000000000000000e+00  1.1383045795042188e+00 -2.4513752399685954e-01 0.0000000000000000e+00  -5.3633701467771198e-07 1.1308044526022593e-08 0.0000000000000000e+00  1.0992547987459800e+00 2.0263275973926662e-04 0.0000000000000000e+00  -1.6720629340906783e-06 8.1240649926901054e-09 0.0000000000000000e+00  -6.5218975237498476e-06 2.0179358376008897e-08 0.0000000000000000e+00  1.1453774417966702e+00 2.4778652908463960e-05 0.0000000000000000e+00  2.1384087142305088e-06 -5.0007957337649344e-07 0.0000000000000000e+00  1.1161370972369529e+00 -1.9456685834137323e-05 0.0000000000000000e+00  -2.3714725046562594e-06 2.4492970430750231e-10 0.0000000000000000e+00  -1.9514109606319429e-06 2.8109076835488172e-09 0.0000000000000000e+00  1.1234560653779637e+00 -2.1213655798351599e-05 0.0000000000000000e+00  -2.8571610918745233e-06 1.1098467170918390e-07 0.0000000000000000e+00  1.7170506048421756e+00 -4.4383421843556109e-01 0.0000000000000000e+00  1.5170701364832606e+00 -2.7970926087357567e-01 0.0000000000000000e+00  1.1420840101612320e+00 -8.0032444878245391e-03 0.0000000000000000e+00  1.3348981732960969e+00 -9.8864301757364506e-02 0.0000000000000000e+00  1.4700103825399444e+00 -3.2189915157357901e-01 0.0000000000000000e+00  1.3741787725987578e+00 1.3202589583881250e-01 0.0000000000000000e+00  1.3325634258345793e+00 3.8103319745045133e-01 0.0000000000000000e+00  1.1451196015707670e+00 4.2058910483760762e-05 0.0000000000000000e+00  1.1163076446639599e+00 -1.7693617249254625e-04 0.0000000000000000e+00  -6.1183865769064160e-07 1.3709341431267139e-09 0.0000000000000000e+00  1.1086429999135998e+00 1.5634492799939805e-02 0.0000000000000000e+00  1.1537144395651215e+00 -1.0286473600500468e-02 0.0000000000000000e+00  1.1453271992089686e+00 6.9204199204615717e-05 0.0000000000000000e+00  1.1449615937271072e+00 -4.8813550491441854e-04 0.0000000000000000e+00  1.1164319673262768e+00 -2.7570019314861514e-04 0.0000000000000000e+00  -2.7397888042150194e-06 6.9626811196222612e-09 0.0000000000000000e+00  1.1450851980354482e+00 -6.7137977492722525e-05 0.0000000000000000e+00  1.1166192835193500e+00 7.9112425472117286e-06 0.0000000000000000e+00  1.6783769417786085e+00 8.5388385236977046e-02 0.0000000000000000e+00  1.1449795560012332e+00 -1.9458274059409815e-04 0.0000000000000000e+00  1.1447551882682414e+00 -2.2963032031441542e-03 0.0000000000000000e+00  -1.0050682610515245e-05 -1.2815155565631660e-06 0.0000000000000000e+00  -1.2917697724887005e-05 -2.5953522818890112e-09 0.0000000000000000e+00  1.2837353669889147e+00 -2.9361478925510188e-03 0.0000000000000000e+00  1.2906680205371412e+00 -7.4306622225844998e-02 0.0000000000000000e+00  1.5364616730188279e+00 -2.3161449510840698e-01 0.0000000000000000e+00  1.1473900724981032e+00 -1.0993902981137418e-03 0.0000000000000000e+00  -3.1233334559162814e-06 -3.0684836697196552e-07 0.0000000000000000e+00  6.5625067193808539e-01 -2.7990769116989989e-07 0.0000000000000000e+00  1.0730361779616275e+00 -2.5098891770215766e-03 0.0000000000000000e+00  1.2829251498436514e+00 -1.2969280677990291e-01 0.0000000000000000e+00  1.3967131438042513e+00 2.4145545361932516e-01 0.0000000000000000e+00  -4.5862090874338696e-06 9.9590396501569925e-09 0.0000000000000000e+00  1.1114864755410492e+00 1.0223060003043981e-04 0.0000000000000000e+00  1.1453122788570846e+00 -2.4696706769023833e-06 0.0000000000000000e+00  -3.4176056585028539e-06 7.9511716401189091e-10 0.0000000000000000e+00  -1.0132304705287170e-05 5.6912966056651347e-09 0.0000000000000000e+00  -4.0170519544569709e-06 -1.6967004968178551e-08 0.0000000000000000e+00  1.7091019308575331e-06 1.1988160667786513e-08 0.0000000000000000e+00  -2.1816854713376961e-06 -6.6170683118605855e-09 0.0000000000000000e+00  -1.1708183926114248e-05 8.4473322503991015e-07 0.0000000000000000e+00  9.4073287833760128e-07 6.2940301516558662e-08 0.0000000000000000e+00  -2.2171778815404581e-06 -3.1142207188655234e-07 0.0000000000000000e+00  8.5627070157248458e-06 -1.7058214125229651e-07 0.0000000000000000e+00  9.6458840347695622e-07 6.1234727191036910e-07 0.0000000000000000e+00  -4.1669794880336808e-06 -3.2698845570147515e-07 0.0000000000000000e+00  1.0625296624883118e-06 1.2843040181674386e-07 0.0000000000000000e+00  -1.4961112829996310e-07 2.5748464794998445e-09 0.0000000000000000e+00  8.9147463187332299e-06 9.0068337991820327e-08 0.0000000000000000e+00  -8.1409883493192701e-07 1.2557987146786548e-07 0.0000000000000000e+00  -8.5812915292304332e-07 -1.5995487660315766e-08 0.0000000000000000e+00  -7.2416124775332501e-06 -7.4748105821111736e-09 0.0000000000000000e+00  -2.1230662548760267e-06 -1.4950132434098599e-10 0.0000000000000000e+00  -6.4438779030584167e-07 7.8892349236142437e-09 0.0000000000000000e+00  1.0713632313913184e+00 9.9400745930314482e-05 0.0000000000000000e+00  1.0721138569599897e+00 -1.5032043641522488e-04 0.0000000000000000e+00  1.0933299293591154e+00 1.9771771009456012e-04 0.0000000000000000e+00  1.1092047409720358e+00 -2.8950442787289065e-04 0.0000000000000000e+00  1.1453827757942681e+00 8.0073287332294666e-05 0.0000000000000000e+00  1.1450681311109530e+00 -1.0091689729493849e-04 0.0000000000000000e+00  1.0640659807725545e+00 -2.9662891500892734e-02 0.0000000000000000e+00  1.0552892982352717e+00 1.4281957172151629e-05 0.0000000000000000e+00  -5.9059350776673869e-01 2.3763155391836920e-03 0.0000000000000000e+00  1.5714710168274668e+00 1.3790917843786180e-01 0.0000000000000000e+00  2.5575368608167237e-01 -9.0992619857166321e-02 0.0000000000000000e+00  1.1452807625150581e+00 -6.4993328154826859e-05 0.0000000000000000e+00  1.1453870194197349e+00 -6.4388643624377679e-05 0.0000000000000000e+00  1.1453977369084023e+00 -6.9475563375229248e-05 0.0000000000000000e+00  1.1453318604605771e+00 -3.3781363170791082e-05 0.0000000000000000e+00  1.0696274000356318e+00 1.6228902142430774e-05 0.0000000000000000e+00  1.0929867564536351e+00 -1.5686878333051447e-04 0.0000000000000000e+00  1.0559202479748924e+00 4.6015156917869905e-05 0.0000000000000000e+00  1.1400499917532749e+00 2.0891759306434901e-05 0.0000000000000000e+00  1.1335236508048436e+00 7.4514811384936777e-02 0.0000000000000000e+00  8.5125015332473997e-01 -1.2029153412954353e-01 0.0000000000000000e+00  6.8199361095254629e-01 9.8980222872403059e-02 0.0000000000000000e+00  1.1452941616995738e+00 5.2934128565987160e-05 0.0000000000000000e+00  1.1449893625782921e+00 -5.6731058127706901e-05 0.0000000000000000e+00  1.1452026605086720e+00 -1.9323712554096830e-05 0.0000000000000000e+00  1.0979553353734091e+00 6.3904053778292343e-05 0.0000000000000000e+00  1.1453313526002551e+00 7.8996582949073440e-05 0.0000000000000000e+00  1.1452530007782793e+00 -2.5320159069216699e-04 0.0000000000000000e+00  1.0822199311429828e+00 6.2144157565736820e-06 0.0000000000000000e+00  1.1451541680396804e+00 2.9204289386578509e-05 0.0000000000000000e+00  1.0743307524534558e+00 1.0124428380956242e-04 0.0000000000000000e+00  1.4559017491004367e+00 4.9134512306480893e-03 0.0000000000000000e+00  6.5624823246095776e-01 -3.0323696348077532e-07 0.0000000000000000e+00  7.5926691547363989e-01 6.9248887865999378e-02 0.0000000000000000e+00  1.3956089670763254e+00 1.1272899106678386e-01 0.0000000000000000e+00  1.6901641131109795e+00 3.4463093325887512e-01 0.0000000000000000e+00  1.0286754332113246e+00 1.8628789282484800e-05 0.0000000000000000e+00  1.1597662105212354e+00 -2.4696805944751155e-02 0.0000000000000000e+00  1.1450956387520206e+00 -9.5617696443250357e-04 0.0000000000000000e+00  1.1447479308514856e+00 -4.9943278567251337e-05 0.0000000000000000e+00  1.1450801810549920e+00 -2.2255535165306540e-05 0.0000000000000000e+00  1.1450447885948172e+00 -5.3724341038605040e-05 0.0000000000000000e+00  1.1989294689434673e+00 1.7525222870461085e-01 0.0000000000000000e+00  8.4164946928293449e-01 1.2438323863967385e-01 0.0000000000000000e+00  7.1788677962046044e-01 4.4821981446760738e-03 0.0000000000000000e+00  1.1453484685881701e+00 2.4921418034592007e-06 0.0000000000000000e+00  1.1446721737744112e+00 -3.1833368919981612e-06 0.0000000000000000e+00  1.4414180430501808e+00 -3.8638045771780309e-02 0.0000000000000000e+00  1.1451428850844729e+00 -5.2672210905958347e-05 0.0000000000000000e+00  7.8348106090598246e-01 -8.6164852159554106e-02 0.0000000000000000e+00  1.0439368046615531e+00 5.3090482852902161e-05 0.0000000000000000e+00  8.1304628980916693e-01 7.1964198421024486e-02 0.0000000000000000e+00  9.4240594184259818e-01 9.5700452965337621e-02 0.0000000000000000e+00  6.3612998209789551e-01 6.4209817556881944e-03 0.0000000000000000e+00  1.5109655390544299e+00 2.8108150856969449e-01 0.0000000000000000e+00  1.1452308419080162e+00 1.1106562519579605e-04 0.0000000000000000e+00  1.1561182241103527e+00 1.0650855985668661e-03 0.0000000000000000e+00  1.2245885984385791e+00 1.7990983937890540e-01 0.0000000000000000e+00  1.0743089919137181e+00 1.1863022614374471e-05 0.0000000000000000e+00  1.1299773094780370e+00 -1.2417824928676521e-04 0.0000000000000000e+00  1.1447873331141294e+00 -3.6460313127828633e-04 0.0000000000000000e+00  1.1451278482650176e+00 -2.2450152923169335e-04 0.0000000000000000e+00  1.4092690614732108e+00 1.5130455801640325e-02 0.0000000000000000e+00  1.1449720629115920e+00 5.1325921826200701e-05 0.0000000000000000e+00  1.1451099583070488e+00 -1.2566519789567131e-05 0.0000000000000000e+00  1.1448924703254140e+00 -2.8712194978135646e-05 0.0000000000000000e+00  1.1436302609428655e+00 -1.3633404591054485e-03 0.0000000000000000e+00  9.5766584803920263e-01 -2.9313085119858894e-04 0.0000000000000000e+00  9.5755441714387446e-01 -2.9228575477680441e-04 0.0000000000000000e+00  1.0091048410959671e+00 -6.1445166810917087e-04 0.0000000000000000e+00  1.0497122185307877e+00 -2.3168773775997665e-04 0.0000000000000000e+00  1.0768937738378297e+00 4.3007839857548094e-05 0.0000000000000000e+00  1.1446830941299853e+00 -7.1809179284313594e-05 0.0000000000000000e+00  9.9493895442158176e-01 -1.5180661631050387e-04 0.0000000000000000e+00  1.1454142856395992e+00 7.8371450880354559e-06 0.0000000000000000e+00  1.1449814065759396e+00 -2.7321624956434728e-05 0.0000000000000000e+00  1.3399571897719527e+00 -9.3975290231644304e-02 0.0000000000000000e+00  1.1452963763666573e+00 -4.1741075922248468e-05 0.0000000000000000e+00  1.1451173133389694e+00 -5.3787282551129598e-06 0.0000000000000000e+00  1.1455667985595215e+00 -6.6228087939703570e-02 0.0000000000000000e+00  9.0623128176539902e-01 -2.3744232786289678e-04 0.0000000000000000e+00  1.1400916657957663e+00 -3.6652863146018874e-04 0.0000000000000000e+00  1.5291144586743595e+00 -5.1714089401663854e-01 0.0000000000000000e+00  1.0337534222617657e+00 2.1257373711801257e-04 0.0000000000000000e+00  7.3750824047235852e-01 -7.7302761879132195e-02 0.0000000000000000e+00  1.4731293315611516e+00 -4.8093034584380231e-02 0.0000000000000000e+00  1.0251393903610364e+00 2.0882910945049160e-03 0.0000000000000000e+00  9.5025519575138662e-01 1.1799382801467179e-04 0.0000000000000000e+00  1.5393500287082507e+00 4.8025435067736122e-01 0.0000000000000000e+00  1.0112656884906064e+00 1.8332902785097507e-01 0.0000000000000000e+00  1.0091874446896569e+00 9.7968280136777729e-05 0.0000000000000000e+00  1.9215285504797155e+00 2.6002927731940573e-01 0.0000000000000000e+00  1.4522182014301919e+00 -5.0693503813875118e-01 0.0000000000000000e+00  9.7333249354860640e-01 -1.8996998621997230e-01 0.0000000000000000e+00  9.9607860524080483e-01 -5.4930850899016304e-03 0.0000000000000000e+00  7.6441369372740586e-01 -7.5703904235957381e-02 0.0000000000000000e+00  9.8955635876679726e-01 3.3850265765136206e-05 0.0000000000000000e+00  1.0272593154355105e+00 4.9732540235376796e-05 0.0000000000000000e+00  1.1444890057070465e+00 -2.1723330906965190e-04 0.0000000000000000e+00  2.3667035706491985e-01 -1.3117075756558724e-01 0.0000000000000000e+00  1.4062434299493214e+00 -1.9742440326196064e-06 0.0000000000000000e+00  1.1452993239210176e+00 4.3983368842572935e-05 0.0000000000000000e+00  1.0100548227402981e+00 -6.7815217812252943e-04 0.0000000000000000e+00  1.4062431934772308e+00 -1.7353176184905124e-06 0.0000000000000000e+00  1.0098972461014557e+00 -3.4464463398444197e-05 0.0000000000000000e+00  1.1437859821981338e+00 -4.0873923219568627e-03 0.0000000000000000e+00  1.1557622140450909e+00 6.3617126157779147e-02 0.0000000000000000e+00  1.1449384734167789e+00 -5.0802443720943458e-05 0.0000000000000000e+00  7.1707340544134657e-01 1.0067071225690258e-01 0.0000000000000000e+00  1.1452024372973779e+00 -4.5857239018772731e-06 0.0000000000000000e+00  9.9063858551826645e-01 -2.5032098063175055e-04 0.0000000000000000e+00  9.4621574214608140e-01 2.3148221521076737e-02 0.0000000000000000e+00  8.5375352990389530e-01 8.7750894865266582e-05 0.0000000000000000e+00  1.1439952665836450e+00 1.6018467912639427e-06 0.0000000000000000e+00  8.5428984919692708e-01 9.1107461818237349e-06 0.0000000000000000e+00  9.5613975285154