<?xml version="1.0"?>
<VTKFile type="UnstructuredGrid"  version="0.1"  >
<UnstructuredGrid>
<Piece  NumberOfPoints="2446" NumberOfCells="4585">
<Points>
<DataArray  type="Float64"  NumberOfComponents="3"  format="ascii">0 0.41 0  0 0 0  2.2 0 0  2.2 0.41 0  0.2404508497187474 0.2293892626146237 0  0.25 0.2 0  0.2404508497187474 0.1706107373853764 0  0.2154508497187474 0.1524471741852423 0  0.1845491502812526 0.1524471741852423 0  0.1595491502812526 0.1706107373853764 0  0.15 0.2 0  0.1595491502812526 0.2293892626146237 0  0.1845491502812527 0.2475528258147577 0  0.2154508497187474 0.2475528258147577 0  1.1 0 0  1.1 0.41 0  0 0.205 0  0.55 0 0  0.55 0.41 0  0.275 0 0  0.275 0.41 0  1.65 0.41 0  1.65 0 0  0.8250000000000001 0.41 0  0.8250000000000001 0 0  1.375 0 0  1.375 0.41 0  1.925 0 0  1.925 0.41 0  1.5125 0.205 0  1.7875 0.205 0  0.6875 0.205 0  0.9625000000000001 0.205 0  1.2375 0.205 0  2.2 0.205 0  0.4687002074688797 0.2068568464730291 0  1.99375 0.2152743902439024 0  2.0625 0 0  2.0625 0.41 0  2.2 0.3075 0  0.4125 0 0  0.4125 0.41 0  1.7875 0.41 0  1.375 0.1486128048780488 0  1.5125 0 0  1.7875 0 0  1.5125 0.41 0  0.8250000000000001 0.2613871951219511 0  0.9625000000000001 0.41 0  0.9625000000000001 0 0  0.6875 0.41 0  0.6875 0 0  0.1375 0 0  0.1375 0.41 0  1.2375 0 0  1.1 0.1486128048780487 0  1.2375 0.41 0  1.65 0.1486128048780487 0  1.126715909090909 0.2793064024390244 0  1.676715909090909 0.2793064024390244 0  0.8517159090909092 0.1306935975609756 0  1.348284090909091 0.2793064024390244 0  0.34375 0.3032389320646208 0  1.894702181800738 0.1282910975492754 0  2.092797818199262 0.1282910975492754 0  1.85625 0.3075 0  0.61875 0.3075 0  0.61875 0.1025 0  0.3648540804333487 0.1240075933101478 0  0 0.3075 0  0 0.1025 0  2.099172119769978 0.25625 0  0.48125 0.09238439620688085 0  0.5781001037344399 0.2059284232365146 0  0.48125 0.3196743479159776 0  0.7265881057911006 0.3055240343720796 0  1.99375 0.08395950269330846 0  1.459960956013612 0.3075 0  1.569025960719943 0.2986889805672169 0  0.75625 0.08213100772579164 0  1.03125 0.3278689922742084 0  0.923871252904788 0.3078247185783941 0  1.959375 0.3126371951219512 0  1.749222215368287 0.1025 0  1.275777784631713 0.1025 0  2.2 0.1025 0  1.225938124459196 0.3075 0  1.550777784631713 0.1025 0  1.000777784631713 0.1025 0  1.44375 0.07430640243902442 0  1.16875 0.07430640243902437 0  1.899250267340833 0.2229966846119207 0  0.1020898364287272 0.3140258291809757 0  1.766482954545455 0.2934032012195123 0  0.3405058858996321 0.2119987970531874 0  0.7710785630958338 0.1710968191298857 0  1.046078563095834 0.2389031808701144 0  0.2 0.3400647632937836 0  1.421109702350723 0.2261157654379721 0  0.2800464974185557 0.08982544815605742 0  0.098916018031319 0.09171660955420841 0  2.13125 0 0  2.118919042110979 0.3422084711244843 0  1.30625 0.41 0  0.89375 0 0  1.597888256393107 0.2173787389261347 0  0.20625 0 0  1.829299675393195 0.07400700849299596 0  1.71875 0.41 0  1.16875 0.41 0  2.038220665644273 0.332420740103091 0  0.34375 0 0  0.417496017710808 0.2696595573092803 0  0.2 0.07687845740457822 0  0.9295982307099278 0.1343158415898188 0  0.07390688010811153 0.1697064032433452 0  0.5238366813727013 0.2578302467013575 0  0.05452951551825875 0.25625 0  0.5229630068078351 0.1548816096928243 0  1.452769549894695 0.1548122580621249 0  1.369219062229598 0.07430640243902442 0  1.30625 0 0  0.8504409521244898 0.3356935975609756 0  0.8821881244591965 0.205 0  1.720943423819132 0.1714577452753128 0  1.157188124459196 0.205 0  1.094219062229598 0.07430640243902437 0  1.03125 0 0  1.304056576180868 0.1714577452753128 0  1.67579304192913 0.07430640243902437 0  0.2751941921308361 0.3346083473122598 0  1.209670467133757 0.1362100266964769 0  1.025335513626278 0.1700681449722324 0  0.7562500000000001 0.41 0  1.58125 0 0  0.7567170593862014 0.2409196493502535 0  0.6926714215682891 0.1272249611432207 0  0.4139715849905988 0.3397932387114203 0  0.9840787304190477 0.2717749043358119 0  0.06875000000000001 0.41 0  0 0.35875 0  0.9281250000000001 0.06276726142697993 0  0.5507396469029935 0.3219409231578227 0  0.5504468037989405 0.09136885600634273 0  1.58125 0.41 0  1.631724228912893 0.3381867502687533 0  1.825608881788174 0.14499488549201 0  1.85625 0 0  1.44375 0 0  1.44375 0.41 0  1.85625 0.41 0  2.13125 0.41 0  0.7562500000000001 0 0  0.89375 0.41 0  0.4812500000000001 0 0  0.34375 0.41 0  0.4812500000000001 0.41 0  0.20625 0.41 0  0.06875000000000001 0 0  1.16875 0 0  0.61875 0 0  0.61875 0.41 0  1.03125 0.41 0  1.71875 0 0  1.99375 0 0  1.99375 0.41 0  1.340625 0.3489494290853124 0  1.134375 0.3489494290853123 0  1.700180620188976 0.3438659752031281 0  2.135782184673599 0.07126652247502523 0  1.668441847249787 0.2129203728327609 0  1.295782514339747 0.2378437748815763 0  0.8233075729931248 0.06842334294821524 0  1.409375 0.3520314716057996 0  0.403505597322782 0.182067236678212 0  0.378125 0.05794951541303489 0  0.3043468223249023 0.1518321115979534 0  2.129248544730567 0.1906135162504124 0  2.060771381434487 0.1989445750470348 0  2.013252586573865 0.1496169464686054 0  1.942766402200229 0.1734448904596831 0  1.895522487186454 0.06076163953489683 0  2.069553871656643 0.06605731020975725 0  1.274680914880868 0.3520219391081363 0  1.614713220494657 0.09473434380863296 0  0.7899021319497519 0.3149123934144827 0  0.69518737419149 0.0634051089053758 0  0.2971740475496061 0.2592172353407536 0  1.72990325744076 0.2380068107952482 0  1.356580098625191 0.2120393231351682 0  2.034370752044885 0.2668681600792073 0  1.51768709249349 0.3426260931494756 0  1.561883724969884 0.1650446847858835 0  1.197344062229598 0.2523725417393646 0  1.804085235518364 0.3468178408964637 0  1.817887819205233 0.2589243285818559 0  1.905897727272727 0.3485060975609756 0  0.6719798073392919 0.2688965171178177 0  0 0.05125 0  0.653125 0.35875 0  0.6396896119294488 0.1627615407790282 0  0.4274150154087412 0.1242548552168279 0  1.192836486056382 0.3562350748565544 0  0.8279124365364005 0.183856489168822 0  1.097485222388854 0.2083571153401724 0  1.28257088594801 0.2944411014911587 0  1.474860187679412 0.2504218616229368 0  1.406767003493824 0.2829282258560709 0  0.446875 0.04619219810344041 0  0.515625 0.04585361801037557 0  0.592043440706648 0.05125 0  1.845656689180403 0.1998310418452388 0  2.144958525570388 0.2909790873294231 0  0.6171090763650112 0.2492366900333857 0  2.2 0.15375 0  0.5145586920831158 0.3648371739579888 0  1.57794966442982 0.3540357145964566 0  0.721875 0.3633107922168974 0  0.0496154796471391 0.333125 0  0.5843750000000001 0.3662560860076676 0  0.5810878747760798 0.1474002776121195 0  1.508991196088596 0.1421783375065625 0  0.8840670607017558 0.2640994375393898 0  0.09776612425612034 0.2204896805326566 0  1.50436820029908 0.06143401634903343 0  1.223857000523521 0.0823554862453532 0  1.153316824384777 0.1289850171317837 0  2.148922302309752 0.1258841779285271 0  0.309375 0.04312325590431198 0  1.621993280276081 0.2841214267927899 0  1.550118654119087 0.2461998729100966 0  1.327182649291491 0.1216967252533594 0  1.051977450479407 0.1221382572915816 0  1.753125 0.04556020050186112 0  1.271875 0.04556020050186116 0  0.9816084133102366 0.05126138213476004 0  1.039051841454368 0.0572224914831029 0  0.9719230514536006 0.3480477870845102 0  1.94956388244759 0.1180512551534177 0  1.949997712993411 0.04965831614304109 0  1.771961817615021 0.1530278789497521 0  1.909246823951428 0.2812757146784527 0  0.2459536687882397 0.04668633953831142 0  1.948575539857022 0.2445328248721197 0  1.697271520964565 0.1233917627620729 0  0.7964897648514618 0.1211426571931604 0  1.065625 0.3689344961371042 0  1.085849084308977 0.3170853572226867 0  0.4702981435440001 0.260434880697798 0  1.577403511714593 0.05463601888079143 0  0.05622663515370135 0.05493816910862376 0  0.3267207591099919 0.3566194660323104 0  0.9003051618565143 0.3564049499960621 0  1.751571320346033 0.3651102912045228 0  0.1583785085108421 0.2994699345738728 0  0.1455283439499995 0.3542795598723423 0  2.2 0.35875 0  0.2347662494194072 0.298325008655211 0  0.1527284455616188 0.1065771775690181 0  0.1382139529076665 0.05427454456341477 0  0.8749341636311069 0.05110114999892954 0  0.643661668713109 0.05693499781019222 0  1.466879772203159 0.3611261772912453 0  1.990280163552011 0.3564754268533217 0  1.17471064520912 0.2990917256188288 0  0.5202693090594349 0.206382495511728 0  0 0.25625 0  2.2 0.25625 0  2.2 0.05125 0  0 0.15375 0  1.853978576207987 0.35875 0  0.9787513713939683 0.1487523696999336 0  0.240625 0.3722153812029779 0  1.515638456102889 0.2882700110184686 0  0.09048297387599738 0.3637717362208066 0  2.150453692751374 0.2387066338105111 0  1.323782677156475 0.04897634338873398 0  0.8074131292871642 0.3624701995505916 0  1.409375 0.03715320121951221 0  1.406484531114799 0.1087852750766809 0  1.134375 0.03715320121951218 0  1.627401732573545 0.04552157221025036 0  0.1170173172005315 0.1427610859166811 0  2.045405893604797 0.1105340662939892 0  1.255408269734577 0.1577307500159216 0  2.028125 0.03707597992059326 0  0.4743610090857199 0.1421513964721819 0  0.9354010469015898 0.250631300585664 0  0.04420832937638274 0.128125 0  0.8922386349349938 0.0992956419364831 0  0.1197849154434487 0.2663398672460083 0  1.248258025468107 0.2565907092181813 0  0.3746885856929528 0.370723531618974 0  1.203125 0.0366132337404304 0  0.5724622277005015 0.2751253816079333 0  0.3365425205162783 0.08395777655057959 0  2.072662025974815 0.2975086504196739 0  0.4581080832182547 0.3648371739579888 0  0.3874522734668214 0.2295447548840689 0  0.7827853612484443 0.04106550386289586 0  1.887722846421017 0.1760882698830035 0  1.472640588990488 0.1118278026240017 0  1.865937103925594 0.2604137786483804 0  1.463913572748262 0.2030442564990043 0  1.376426316059077 0.3186741374914345 0  0.6641993820150034 0.3141688596240831 0  0.2943117490824315 0.2130987422685822 0  0.3478153998082709 0.1666571081082676 0  0.3427990510599805 0.2575950027870776 0  0.7997118993855807 0.2216171933356366 0  
[...]
<PointData  Vectors="f_31"> 
<DataArray  type="Float64"  Name="f_31"  NumberOfComponents="3" format="ascii">2.1268024929929486e-06 7.1479008581309027e-08 0.0000000000000000e+00  -2.2680504000947313e-06 1.9404697729405899e-09 0.0000000000000000e+00  4.1663396328934749e-06 -3.5931560162909568e-08 0.0000000000000000e+00  -1.6852943741558975e-05 4.1524830529141815e-08 0.0000000000000000e+00  -5.5307150068821957e-06 1.8952169247749357e-06 0.0000000000000000e+00  -1.2208819869623810e-05 2.0070313548190490e-05 0.0000000000000000e+00  -1.1396340030080072e-05 1.1216460984257551e-05 0.0000000000000000e+00  -7.5445540095591562e-06 -4.4677595964495045e-06 0.0000000000000000e+00  -1.1972325974181824e-05 -5.5649440795638599e-06 0.0000000000000000e+00  -7.2366393548538394e-06 1.5168719679079841e-06 0.0000000000000000e+00  1.0400896341768290e-06 8.6406750054090356e-06 0.0000000000000000e+00  -5.1787184674890415e-06 -3.0685965479614959e-06 0.0000000000000000e+00  9.2808523210901901e-06 3.8389300592325907e-06 0.0000000000000000e+00  -1.2613895731628067e-05 1.7602474621744127e-07 0.0000000000000000e+00  -2.9437922616084723e-06 4.6444157423649867e-09 0.0000000000000000e+00  -1.5337120525031828e-07 3.0487734573929192e-08 0.0000000000000000e+00  1.5000042090502981e+00 1.5251448269958410e-06 0.0000000000000000e+00  -1.7500264265028655e-05 -5.3802115691992739e-08 0.0000000000000000e+00  -6.4063311863968199e-06 -1.0848853721923058e-07 0.0000000000000000e+00  9.1674546359469064e-06 -5.9926185978950051e-07 0.0000000000000000e+00  1.8622694716141614e-06 1.1329998539267165e-06 0.0000000000000000e+00  1.8144791672910842e-07 -2.3728572437511234e-08 0.0000000000000000e+00  3.3465215960323076e-08 -3.7195864724807212e-08 0.0000000000000000e+00  1.1757217475781710e-06 -4.4527688569708808e-08 0.0000000000000000e+00  -5.6376698555526456e-06 3.5270283323593021e-09 0.0000000000000000e+00  -4.0746328237588645e-06 6.4140087777249458e-09 0.0000000000000000e+00  -6.1045237447467785e-07 7.6960195300218415e-08 0.0000000000000000e+00  -3.3913486534458309e-06 2.4393361061353116e-08 0.0000000000000000e+00  -2.8905362980978745e-06 -5.3529433252618853e-08 0.0000000000000000e+00  1.1053033115021633e+00 5.8243093948649619e-05 0.0000000000000000e+00  1.1052593032158902e+00 -3.6567909236012414e-06 0.0000000000000000e+00  1.1061131451129280e+00 -4.4568237273504164e-03 0.0000000000000000e+00  1.1051189029677502e+00 -3.0612431476891868e-04 0.0000000000000000e+00  1.1049217723314371e+00 -4.0678050753037074e-05 0.0000000000000000e+00  1.1051882483245099e+00 6.5630883459790994e-05 0.0000000000000000e+00  8.0344482638078274e-01 -6.8146513944298964e-02 0.0000000000000000e+00  1.1050959890434529e+00 -3.0720585828046945e-05 0.0000000000000000e+00  5.9219565734304648e-08 2.9455221992151207e-08 0.0000000000000000e+00  -1.1049118647909685e-06 -2.3190726006434699e-08 0.0000000000000000e+00  1.1049546281166469e+00 2.7482352974729588e-04 0.0000000000000000e+00  4.9016062598500540e-06 2.2353322485312511e-06 0.0000000000000000e+00  2.0261690496846483e-06 -1.9322163435624078e-06 0.0000000000000000e+00  -6.7911860400388666e-06 -6.0869444847560526e-08 0.0000000000000000e+00  1.1051634246986586e+00 9.1573897683614521e-05 0.0000000000000000e+00  -9.0011421269838921e-07 -4.2736051265166946e-08 0.0000000000000000e+00  -4.5736893121855834e-06 3.7868822322900093e-08 0.0000000000000000e+00  7.3164870804252443e-07 2.1780351650971137e-08 0.0000000000000000e+00  1.1060206943641355e+00 -7.5700685075906775e-04 0.0000000000000000e+00  -2.2371300330721775e-06 1.9158365635402181e-08 0.0000000000000000e+00  2.4141161611313519e-06 -2.4706231399132606e-08 0.0000000000000000e+00  2.2334125135956264e-06 -3.7373014157318633e-08 0.0000000000000000e+00  -6.9916929183393598e-06 2.5504460276437794e-08 0.0000000000000000e+00  -5.3701597685335922e-06 1.2297322436155952e-06 0.0000000000000000e+00  -5.4793699932261200e-06 -9.7908550932562819e-07 0.0000000000000000e+00  1.8026423233630305e-07 2.7245544091168421e-08 0.0000000000000000e+00  1.1049940955369495e+00 -1.1541055956419181e-04 0.0000000000000000e+00  -1.6838455389020347e-06 3.3265973895875073e-08 0.0000000000000000e+00  1.1052401591970098e+00 4.2620365881361353e-06 0.0000000000000000e+00  1.1051175345747564e+00 -5.1342805922653966e-06 0.0000000000000000e+00  1.1049896707401936e+00 4.0828563145746458e-06 0.0000000000000000e+00  1.1048631329127401e+00 -9.7257170792399946e-04 0.0000000000000000e+00  1.1051721376334724e+00 -8.7002427089378462e-05 0.0000000000000000e+00  1.8837940037067045e+00 -2.2767999014152837e-01 0.0000000000000000e+00  1.1052578742593429e+00 -1.1082096791087469e-04 0.0000000000000000e+00  1.1051816480188306e+00 -3.7232216621383231e-05 0.0000000000000000e+00  1.1049379391870815e+00 3.4675722332214959e-05 0.0000000000000000e+00  1.1212355323893286e+00 -3.9754327077862932e-03 0.0000000000000000e+00  1.1074070378025942e+00 -5.3241432694712647e-03 0.0000000000000000e+00  1.7971815865330425e+00 4.8768820923487682e-01 0.0000000000000000e+00  1.1249990080525898e+00 6.4116194853530992e-07 0.0000000000000000e+00  1.1249900615119925e+00 1.0607302112875002e-06 0.0000000000000000e+00  1.1051016381968550e+00 -1.9981395341271859e-05 0.0000000000000000e+00  1.2018929496497170e+00 5.2332064251518831e-02 0.0000000000000000e+00  1.0907561444923422e+00 -1.4154101631177241e-02 0.0000000000000000e+00  1.2252102566660483e+00 -4.8069541245642777e-02 0.0000000000000000e+00  1.1085122187185097e+00 -5.1864668211384858e-04 0.0000000000000000e+00  1.1041208635964688e+00 -1.3582292038452509e-04 0.0000000000000000e+00  1.1051728556652984e+00 1.2287981088904320e-04 0.0000000000000000e+00  1.1047453034771237e+00 1.4824567893267646e-04 0.0000000000000000e+00  1.1018729991048843e+00 -2.2148558041581098e-03 0.0000000000000000e+00  1.1030644853318274e+00 2.7104324293363079e-04 0.0000000000000000e+00  1.1053359961298923e+00 -1.5249310134679038e-04 0.0000000000000000e+00  1.1048666833595515e+00 9.7422617107556072e-05 0.0000000000000000e+00  1.1044190767981064e+00 -2.4355071563364532e-04 0.0000000000000000e+00  1.1051057434008535e+00 -4.6012600450076317e-05 0.0000000000000000e+00  1.1047417952278871e+00 -1.5514004944378312e-04 0.0000000000000000e+00  1.1050391001188500e+00 -6.3659348248328512e-05 0.0000000000000000e+00  1.1048700954535595e+00 -5.8975595974076754e-05 0.0000000000000000e+00  1.1050670523917785e+00 -1.0894155163538947e-04 0.0000000000000000e+00  1.1020832405396987e+00 2.2034810991542890e-04 0.0000000000000000e+00  1.1017725554127598e+00 7.6978251702866971e-05 0.0000000000000000e+00  1.1051151826084842e+00 2.5505809190328358e-05 0.0000000000000000e+00  1.1874154353247450e+00 2.5220278022452541e-01 0.0000000000000000e+00  1.1049489382685782e+00 -1.5054004102051930e-05 0.0000000000000000e+00  -6.9923509656734673e-01 -4.1863557787728385e-02 0.0000000000000000e+00  1.1051750744369901e+00 -2.1691153232912572e-03 0.0000000000000000e+00  1.1052083667178449e+00 -1.0517435949001559e-04 0.0000000000000000e+00  1.3925897762723525e+00 2.0884367528868308e-01 0.0000000000000000e+00  1.1051183814866916e+00 1.2630584348164687e-05 0.0000000000000000e+00  1.8846931810647336e+00 -3.5509490523983618e-02 0.0000000000000000e+00  1.1407497850067092e+00 -2.4553886796184929e-01 0.0000000000000000e+00  -5.3932319023572812e-07 3.1821618916045092e-10 0.0000000000000000e+00  1.0976255801323396e+00 1.0307808344315190e-04 0.0000000000000000e+00  -2.7270791269064798e-06 -6.7461614186443878e-08 0.0000000000000000e+00  -7.5184535041208038e-06 3.5466047277545472e-08 0.0000000000000000e+00  1.1053227544583750e+00 1.4873593354745318e-05 0.0000000000000000e+00  2.4860909473314492e-06 -7.7640246441882596e-07 0.0000000000000000e+00  1.1015454033794518e+00 2.0749589905071455e-04 0.0000000000000000e+00  -3.5059054074973832e-06 5.6031044691788757e-09 0.0000000000000000e+00  -2.4605233226498768e-06 -3.2056900439804535e-08 0.0000000000000000e+00  1.1030386918102713e+00 -3.0838947001609914e-05 0.0000000000000000e+00  1.0561006494109561e-05 9.3399879412056491e-07 0.0000000000000000e+00  1.4580645263104681e+00 -4.7168792374774010e-01 0.0000000000000000e+00  1.5244659591879444e+00 -2.6326261631645670e-01 0.0000000000000000e+00  1.1049467748944051e+00 -4.5055550873921015e-04 0.0000000000000000e+00  1.3364014267212749e+00 -1.0336458742344547e-01 0.0000000000000000e+00  1.1202971973808182e+00 -7.5590802749526995e-02 0.0000000000000000e+00  1.3738686749906832e+00 1.2811568641277099e-01 0.0000000000000000e+00  1.0825790252098824e+00 5.0027515453546542e-02 0.0000000000000000e+00  1.1051632429403175e+00 8.3322052361680881e-05 0.0000000000000000e+00  1.1007403541526355e+00 -1.3363479667040102e-04 0.0000000000000000e+00  -4.8100252087423368e-07 -3.7139656280385417e-10 0.0000000000000000e+00  1.1017080661152003e+00 -1.0004793032088645e-04 0.0000000000000000e+00  1.1052509439664775e+00 -6.7268923939923608e-04 0.0000000000000000e+00  1.1051580106929406e+00 1.0564876609845616e-05 0.0000000000000000e+00  1.1049390543049789e+00 -4.2542782436377943e-05 0.0000000000000000e+00  1.1019988086200134e+00 -3.4827411524167610e-04 0.0000000000000000e+00  -3.4496192232011575e-06 -3.9746049680408778e-08 0.0000000000000000e+00  1.1050634612178842e+00 9.1504713683044679e-06 0.0000000000000000e+00  1.1014700225308431e+00 -1.4540413377795014e-04 0.0000000000000000e+00  1.6293654559678430e+00 3.3497894916997076e-02 0.0000000000000000e+00  1.1050625464587338e+00 -1.9125318117419753e-05 0.0000000000000000e+00  1.1050529646660898e+00 -1.5179900293332431e-04 0.0000000000000000e+00  -1.2057532001631055e-06 1.7059526470108880e-09 0.0000000000000000e+00  -1.4794833460028682e-05 4.8364526178013871e-08 0.0000000000000000e+00  1.1067732076521499e+00 -1.8873224818741106e-03 0.0000000000000000e+00  1.1044676994822469e+00 -3.9000063559447512e-03 0.0000000000000000e+00  1.2676492838968132e+00 -8.2923836496194891e-02 0.0000000000000000e+00  1.1053503033833474e+00 -1.4110005195628399e-04 0.0000000000000000e+00  -2.8956857587007998e-06 -3.1625264349759956e-07 0.0000000000000000e+00  6.5625076423208184e-01 2.8042273620689171e-07 0.0000000000000000e+00  1.0913695019294709e+00 -2.4795894554623544e-04 0.0000000000000000e+00  1.1572884815162758e+00 -1.2030422872496645e-02 0.0000000000000000e+00  1.1342114394395706e+00 1.2248131685304870e-03 0.0000000000000000e+00  -5.8410311493677604e-06 1.4526602999975754e-08 0.0000000000000000e+00  1.1004377812184796e+00 1.2485380524156561e-04 0.0000000000000000e+00  1.1052422688000332e+00 -3.5095548322526952e-06 0.0000000000000000e+00  -3.7256514578114238e-06 3.5766276581103346e-09 0.0000000000000000e+00  -1.1006155178310302e-05 -1.8103101563115632e-09 0.0000000000000000e+00  -5.2602866192480571e-06 -2.7424862534269702e-08 0.0000000000000000e+00  1.5152600623590461e-06 5.0031669146664011e-08 0.0000000000000000e+00  -2.9547176644820740e-06 1.6422835869084571e-08 0.0000000000000000e+00  -1.0584891947774768e-06 1.5550717826413456e-08 0.0000000000000000e+00  5.2993996654934674e-07 4.3720710354559990e-08 0.0000000000000000e+00  -6.8983001097937757e-06 7.4788610923891218e-08 0.0000000000000000e+00  1.4408767778245937e-05 -2.3251841435539320e-08 0.0000000000000000e+00  -1.2574502877210405e-05 -4.0001664752308447e-08 0.0000000000000000e+00  -1.7596335856585861e-06 -6.1968101768782997e-08 0.0000000000000000e+00  3.7879012150197346e-07 2.6950677988847218e-07 0.0000000000000000e+00  -3.5713440453641009e-07 1.9785958844755451e-09 0.0000000000000000e+00  -9.5260049060172462e-06 2.5109947884061215e-08 0.0000000000000000e+00  -8.1800811377708655e-06 -1.7088594510054606e-07 0.0000000000000000e+00  -1.0503525698885824e-06 -4.4990675424863052e-08 0.0000000000000000e+00  -8.1163247607254546e-06 -2.5057941079284057e-08 0.0000000000000000e+00  -2.3995562098663552e-06 3.2090162408124558e-08 0.0000000000000000e+00  -7.8635956035422203e-07 2.7044470283330249e-08 0.0000000000000000e+00  1.0873616220345770e+00 9.4973885792360116e-05 0.0000000000000000e+00  1.0899272392063235e+00 3.3907379636658906e-04 0.0000000000000000e+00  1.0961135460178875e+00 -1.0869984249233966e-04 0.0000000000000000e+00  1.0997667907725295e+00 -1.3149166933105252e-04 0.0000000000000000e+00  1.1052959955333685e+00 4.6190690881105082e-05 0.0000000000000000e+00  1.1049882485264195e+00 -3.4906511656253716e-05 0.0000000000000000e+00  1.0967383067397458e+00 -1.1660542742644123e-03 0.0000000000000000e+00  1.0840706623674716e+00 1.3824958094183241e-04 0.0000000000000000e+00  1.7795927113256171e-01 3.5324348237267261e-01 0.0000000000000000e+00  1.3277310688462589e+00 1.3999463352558439e-01 0.0000000000000000e+00  5.5001468499314510e-01 -1.3941506473838439e-01 0.0000000000000000e+00  1.1051101650153821e+00 1.9980903857221546e-05 0.0000000000000000e+00  1.1051874079031043e+00 -9.6218038090764791e-06 0.0000000000000000e+00  1.1051523053303256e+00 -3.1816258866576458e-05 0.0000000000000000e+00  1.1051232418170573e+00 -1.9617547128600691e-05 0.0000000000000000e+00  1.0883841159093350e+00 -2.9444779833004886e-04 0.0000000000000000e+00  1.0956841817884133e+00 -8.1598528378378675e-05 0.0000000000000000e+00  1.0845065243327603e+00 2.2959881925659761e-04 0.0000000000000000e+00  1.1044706807863112e+00 1.2789157581873306e-06 0.0000000000000000e+00  1.1062500046482935e+00 2.1336882649782463e-05 0.0000000000000000e+00  1.0890841927660633e+00 -4.0173647987263722e-03 0.0000000000000000e+00  8.8191474729732156e-01 3.5182134529475211e-02 0.0000000000000000e+00  1.1052047921388737e+00 9.9331133061035655e-06 0.0000000000000000e+00  1.1049779409016076e+00 -2.2437274025114952e-05 0.0000000000000000e+00  1.1051748015281071e+00 -7.2772590375962927e-06 0.0000000000000000e+00  1.0971715436770957e+00 6.0541011522784768e-04 0.0000000000000000e+00  1.1052152011900913e+00 3.6185213429901106e-05 0.0000000000000000e+00  1.1050256985806779e+00 -8.8106371113141082e-06 0.0000000000000000e+00  1.0933464857320871e+00 -3.8897908150280837e-04 0.0000000000000000e+00  1.1051679315480143e+00 5.5573828811749254e-06 0.0000000000000000e+00  1.0904986999926771e+00 6.2290323429568480e-04 0.0000000000000000e+00  1.1103514515551647e+00 -4.2737418271865330e-03 0.0000000000000000e+00  6.5624824115378144e-01 5.3874877730202383e-08 0.0000000000000000e+00  1.0656662257615435e+00 4.7649151341430107e-03 0.0000000000000000e+00  1.1039021097465083e+00 -3.9885878366421540e-03 0.0000000000000000e+00  1.3864496132568436e+00 3.7509942512784256e-01 0.0000000000000000e+00  1.0728421657313387e+00 1.7037846144164065e-04 0.0000000000000000e+00  1.1051246168137361e+00 -1.2185227892751208e-03 0.0000000000000000e+00  1.1050167823403452e+00 -8.1079664035626372e-05 0.0000000000000000e+00  1.1051768048353587e+00 -2.7923946607750925e-05 0.0000000000000000e+00  1.1051345905809808e+00 4.4582021164866071e-05 0.0000000000000000e+00  1.1052553809906742e+00 -9.7668835573300709e-05 0.0000000000000000e+00  1.0993661755497286e+00 4.3346168256251073e-02 0.0000000000000000e+00  1.0262900037191725e+00 -2.2069395175956286e-02 0.0000000000000000e+00  1.0534486649342398e+00 -1.6479480109191851e-02 0.0000000000000000e+00  1.1051860211268292e+00 -3.1051460737518568e-06 0.0000000000000000e+00  1.1051700009324450e+00 8.1967290763820312e-06 0.0000000000000000e+00  1.1098573393641364e+00 -1.3099514764947182e-02 0.0000000000000000e+00  1.1049849037600434e+00 9.7797995510497224e-05 0.0000000000000000e+00  1.0485751679871522e+00 9.1744442224476162e-03 0.0000000000000000e+00  1.0795798553944886e+00 3.6405400152133898e-04 0.0000000000000000e+00  1.0407031533422850e+00 1.3717174762338206e-03 0.0000000000000000e+00  9.4180233281688452e-01 9.3845614904721791e-02 0.0000000000000000e+00  1.0176822337929776e+00 1.4411971956666268e-02 0.0000000000000000e+00  1.1024816996718738e+00 4.2652961353856862e-03 0.0000000000000000e+00  1.1052162348539851e+00 4.6139803177848116e-05 0.0000000000000000e+00  1.1055788658343737e+00 -4.4863515117131393e-04 0.0000000000000000e+00  1.2246992268807908e+00 1.6948632885997972e-01 0.0000000000000000e+00  1.0914050417691155e+00 -4.8640862718286236e-04 0.0000000000000000e+00  1.1036158882804497e+00 -1.0795026651942146e-04 0.0000000000000000e+00  1.1051094913391075e+00 -5.1564368627144546e-05 0.0000000000000000e+00  1.1051635201758536e+00 -6.8182685120800958e-05 0.0000000000000000e+00  1.3165127551828539e+00 5.6233745469035881e-02 0.0000000000000000e+00  1.1049104327549601e+00 1.6178052404109365e-05 0.0000000000000000e+00  1.1050341975115756e+00 3.7722835471403407e-05 0.0000000000000000e+00  1.1051664151658591e+00 6.6845372199013730e-05 0.0000000000000000e+00  1.1050703584015280e+00 -1.4773660458246282e-04 0.0000000000000000e+00  1.0346764867400033e+00 -2.3311302058966280e-04 0.0000000000000000e+00  1.0344878079655377e+00 -3.6162791945336143e-04 0.0000000000000000e+00  1.0657079544524366e+00 -8.1147721419552068e-05 0.0000000000000000e+00  1.0820913423321041e+00 5.7383757660465260e-05 0.0000000000000000e+00  1.0912049114047115e+00 2.4363289668322702e-04 0.0000000000000000e+00  1.1051795505304562e+00 -1.0992225059822766e-04 0.0000000000000000e+00  1.0539325442540817e+00 -4.5047095953569207e-04 0.0000000000000000e+00  1.1052674338240449e+00 -3.9269598800386781e-06 0.0000000000000000e+00  1.1052288396016559e+00 8.4498056196110390e-05 0.0000000000000000e+00  1.3260549064447058e+00 -6.6270669887024805e-02 0.0000000000000000e+00  1.1051586913356548e+00 -4.9887766413301386e-06 0.0000000000000000e+00  1.1051999718160694e+00 -4.4669928226879863e-05 0.0000000000000000e+00  1.1044472389677820e+00 -1.6235748933029963e-03 0.0000000000000000e+00  1.0004920696006798e+00 -4.2788158655716972e-04 0.0000000000000000e+00  1.1048986783550541e+00 -3.5837891634866562e-05 0.0000000000000000e+00  1.1862246567807093e+00 -1.8848125403146837e-01 0.0000000000000000e+00  1.0738438235394483e+00 -2.3236605455642745e-04 0.0000000000000000e+00  7.3741664420416841e-01 -7.7060072368375962e-02 0.0000000000000000e+00  1.3473926524178457e+00 -6.2704920934639474e-02 0.0000000000000000e+00  1.0708926436498363e+00 -9.6252034991588511e-05 0.0000000000000000e+00  1.0293273629186130e+00 2.5781773910356641e-04 0.0000000000000000e+00  1.5353712558223342e+00 4.6167484427510702e-01 0.0000000000000000e+00  1.0026941207757132e+00 1.7192481390094572e-01 0.0000000000000000e+00  1.0628610345515010e+00 1.3101162796536434e-03 0.0000000000000000e+00  1.9153600386224476e+00 2.1133351885397952e-01 0.0000000000000000e+00  1.4636463031766793e+00 -5.0635329630581127e-01 0.0000000000000000e+00  9.7344522274479539e-01 -1.8606911418015762e-01 0.0000000000000000e+00  1.0613669719805587e+00 -7.3512064475664751e-04 0.0000000000000000e+00  1.0735248864446232e+00 -8.3591870290019073e-03 0.0000000000000000e+00  1.0529044182765250e+00 5.4377616433404750e-04 0.0000000000000000e+00  1.0723491224658415e+00 -2.1082200403588978e-04 0.0000000000000000e+00  1.1050868602044845e+00 2.0250773995589335e-05 0.0000000000000000e+00  1.0281066671586494e+00 -3.1672386363125034e-02 0.0000000000000000e+00  1.4062435127794222e+00 1.2077042266119315e-06 0.0000000000000000e+00  1.1052056096510741e+00 1.5971314984377543e-04 0.0000000000000000e+00  1.0638489312831243e+00 -1.0528907757113876e-03 0.0000000000000000e+00  1.4062428610184554e+00 1.2216414515983957e-06 0.0000000000000000e+00  1.0641684703674508e+00 4.9242196013850300e-05 0.0000000000000000e+00  1.1049660982851235e+00 -2.4136400139691526e-04 0.0000000000000000e+00  1.1104846975063067e+00 4.3413379864250132e-02 0.0000000000000000e+00  1.1050993779649176e+00 1.3153482060846846e-04 0.0000000000000000e+00  7.1368601639598794e-01 9.7740580871761212e-02 0.0000000000000000e+00  1.1051112261514155e+00 5.3069235916111187e-05 0.0000000000000000e+00  1.0532242636318081e+00 -3.1320873989929275e-04 0.0000000000000000e+00  1.0459223377429610e+00 8.2164194990540392e-04 0.0000000000000000e+00  9.6145510271784906e-01 5.4944607648039448e-04 0.0000000000000000e+00  1.1051442652449284e+00 1.3523365091939248e-04 0.0000000000000000e+00  9.6315448706882123e-01 2.5307175555954083e-04 0.0000000000000000e+00  1.0335129729866497e+00