<?xml version="1.0"?>
<VTKFile type="UnstructuredGrid"  version="0.1"  >
<UnstructuredGrid>
<Piece  NumberOfPoints="2446" NumberOfCells="4585">
<Points>
<DataArray  type="Float64"  NumberOfComponents="3"  format="ascii">0 0.41 0  0 0 0  2.2 0 0  2.2 0.41 0  0.2404508497187474 0.2293892626146237 0  0.25 0.2 0  0.2404508497187474 0.1706107373853764 0  0.2154508497187474 0.1524471741852423 0  0.1845491502812526 0.1524471741852423 0  0.1595491502812526 0.1706107373853764 0  0.15 0.2 0  0.1595491502812526 0.2293892626146237 0  0.1845491502812527 0.2475528258147577 0  0.2154508497187474 0.2475528258147577 0  1.1 0 0  1.1 0.41 0  0 0.205 0  0.55 0 0  0.55 0.41 0  0.275 0 0  0.275 0.41 0  1.65 0.41 0  1.65 0 0  0.8250000000000001 0.41 0  0.8250000000000001 0 0  1.375 0 0  1.375 0.41 0  1.925 0 0  1.925 0.41 0  1.5125 0.205 0  1.7875 0.205 0  0.6875 0.205 0  0.9625000000000001 0.205 0  1.2375 0.205 0  2.2 0.205 0  0.4687002074688797 0.2068568464730291 0  1.99375 0.2152743902439024 0  2.0625 0 0  2.0625 0.41 0  2.2 0.3075 0  0.4125 0 0  0.4125 0.41 0  1.7875 0.41 0  1.375 0.1486128048780488 0  1.5125 0 0  1.7875 0 0  1.5125 0.41 0  0.8250000000000001 0.2613871951219511 0  0.9625000000000001 0.41 0  0.9625000000000001 0 0  0.6875 0.41 0  0.6875 0 0  0.1375 0 0  0.1375 0.41 0  1.2375 0 0  1.1 0.1486128048780487 0  1.2375 0.41 0  1.65 0.1486128048780487 0  1.126715909090909 0.2793064024390244 0  1.676715909090909 0.2793064024390244 0  0.8517159090909092 0.1306935975609756 0  1.348284090909091 0.2793064024390244 0  0.34375 0.3032389320646208 0  1.894702181800738 0.1282910975492754 0  2.092797818199262 0.1282910975492754 0  1.85625 0.3075 0  0.61875 0.3075 0  0.61875 0.1025 0  0.3648540804333487 0.1240075933101478 0  0 0.3075 0  0 0.1025 0  2.099172119769978 0.25625 0  0.48125 0.09238439620688085 0  0.5781001037344399 0.2059284232365146 0  0.48125 0.3196743479159776 0  0.7265881057911006 0.3055240343720796 0  1.99375 0.08395950269330846 0  1.459960956013612 0.3075 0  1.569025960719943 0.2986889805672169 0  0.75625 0.08213100772579164 0  1.03125 0.3278689922742084 0  0.923871252904788 0.3078247185783941 0  1.959375 0.3126371951219512 0  1.749222215368287 0.1025 0  1.275777784631713 0.1025 0  2.2 0.1025 0  1.225938124459196 0.3075 0  1.550777784631713 0.1025 0  1.000777784631713 0.1025 0  1.44375 0.07430640243902442 0  1.16875 0.07430640243902437 0  1.899250267340833 0.2229966846119207 0  0.1020898364287272 0.3140258291809757 0  1.766482954545455 0.2934032012195123 0  0.3405058858996321 0.2119987970531874 0  0.7710785630958338 0.1710968191298857 0  1.046078563095834 0.2389031808701144 0  0.2 0.3400647632937836 0  1.421109702350723 0.2261157654379721 0  0.2800464974185557 0.08982544815605742 0  0.098916018031319 0.09171660955420841 0  2.13125 0 0  2.118919042110979 0.3422084711244843 0  1.30625 0.41 0  0.89375 0 0  1.597888256393107 0.2173787389261347 0  0.20625 0 0  1.829299675393195 0.07400700849299596 0  1.71875 0.41 0  1.16875 0.41 0  2.038220665644273 0.332420740103091 0  0.34375 0 0  0.417496017710808 0.2696595573092803 0  0.2 0.07687845740457822 0  0.9295982307099278 0.1343158415898188 0  0.07390688010811153 0.1697064032433452 0  0.5238366813727013 0.2578302467013575 0  0.05452951551825875 0.25625 0  0.5229630068078351 0.1548816096928243 0  1.452769549894695 0.1548122580621249 0  1.369219062229598 0.07430640243902442 0  1.30625 0 0  0.8504409521244898 0.3356935975609756 0  0.8821881244591965 0.205 0  1.720943423819132 0.1714577452753128 0  1.157188124459196 0.205 0  1.094219062229598 0.07430640243902437 0  1.03125 0 0  1.304056576180868 0.1714577452753128 0  1.67579304192913 0.07430640243902437 0  0.2751941921308361 0.3346083473122598 0  1.209670467133757 0.1362100266964769 0  1.025335513626278 0.1700681449722324 0  0.7562500000000001 0.41 0  1.58125 0 0  0.7567170593862014 0.2409196493502535 0  0.6926714215682891 0.1272249611432207 0  0.4139715849905988 0.3397932387114203 0  0.9840787304190477 0.2717749043358119 0  0.06875000000000001 0.41 0  0 0.35875 0  0.9281250000000001 0.06276726142697993 0  0.5507396469029935 0.3219409231578227 0  0.5504468037989405 0.09136885600634273 0  1.58125 0.41 0  1.631724228912893 0.3381867502687533 0  1.825608881788174 0.14499488549201 0  1.85625 0 0  1.44375 0 0  1.44375 0.41 0  1.85625 0.41 0  2.13125 0.41 0  0.7562500000000001 0 0  0.89375 0.41 0  0.4812500000000001 0 0  0.34375 0.41 0  0.4812500000000001 0.41 0  0.20625 0.41 0  0.06875000000000001 0 0  1.16875 0 0  0.61875 0 0  0.61875 0.41 0  1.03125 0.41 0  1.71875 0 0  1.99375 0 0  1.99375 0.41 0  1.340625 0.3489494290853124 0  1.134375 0.3489494290853123 0  1.700180620188976 0.3438659752031281 0  2.135782184673599 0.07126652247502523 0  1.668441847249787 0.2129203728327609 0  1.295782514339747 0.2378437748815763 0  0.8233075729931248 0.06842334294821524 0  1.409375 0.3520314716057996 0  0.403505597322782 0.182067236678212 0  0.378125 0.05794951541303489 0  0.3043468223249023 0.1518321115979534 0  2.129248544730567 0.1906135162504124 0  2.060771381434487 0.1989445750470348 0  2.013252586573865 0.1496169464686054 0  1.942766402200229 0.1734448904596831 0  1.895522487186454 0.06076163953489683 0  2.069553871656643 0.06605731020975725 0  1.274680914880868 0.3520219391081363 0  1.614713220494657 0.09473434380863296 0  0.7899021319497519 0.3149123934144827 0  0.69518737419149 0.0634051089053758 0  0.2971740475496061 0.2592172353407536 0  1.72990325744076 0.2380068107952482 0  1.356580098625191 0.2120393231351682 0  2.034370752044885 0.2668681600792073 0  1.51768709249349 0.3426260931494756 0  1.561883724969884 0.1650446847858835 0  1.197344062229598 0.2523725417393646 0  1.804085235518364 0.3468178408964637 0  1.817887819205233 0.2589243285818559 0  1.905897727272727 0.3485060975609756 0  0.6719798073392919 0.2688965171178177 0  0 0.05125 0  0.653125 0.35875 0  0.6396896119294488 0.1627615407790282 0  0.4274150154087412 0.1242548552168279 0  1.192836486056382 0.3562350748565544 0  0.8279124365364005 0.183856489168822 0  1.097485222388854 0.2083571153401724 0  1.28257088594801 0.2944411014911587 0  1.474860187679412 0.2504218616229368 0  1.406767003493824 0.2829282258560709 0  0.446875 0.04619219810344041 0  0.515625 0.04585361801037557 0  0.592043440706648 0.05125 0  1.845656689180403 0.1998310418452388 0  2.144958525570388 0.2909790873294231 0  0.6171090763650112 0.2492366900333857 0  2.2 0.15375 0  0.5145586920831158 0.3648371739579888 0  1.57794966442982 0.3540357145964566 0  0.721875 0.3633107922168974 0  0.0496154796471391 0.333125 0  0.5843750000000001 0.3662560860076676 0  0.5810878747760798 0.1474002776121195 0  1.508991196088596 0.1421783375065625 0  0.8840670607017558 0.2640994375393898 0  0.09776612425612034 0.2204896805326566 0  1.50436820029908 0.06143401634903343 0  1.223857000523521 0.0823554862453532 0  1.153316824384777 0.1289850171317837 0  2.148922302309752 0.1258841779285271 0  0.309375 0.04312325590431198 0  1.621993280276081 0.2841214267927899 0  1.550118654119087 0.2461998729100966 0  1.327182649291491 0.1216967252533594 0  1.051977450479407 0.1221382572915816 0  1.753125 0.04556020050186112 0  1.271875 0.04556020050186116 0  0.9816084133102366 0.05126138213476004 0  1.039051841454368 0.0572224914831029 0  0.9719230514536006 0.3480477870845102 0  1.94956388244759 0.1180512551534177 0  1.949997712993411 0.04965831614304109 0  1.771961817615021 0.1530278789497521 0  1.909246823951428 0.2812757146784527 0  0.2459536687882397 0.04668633953831142 0  1.948575539857022 0.2445328248721197 0  1.697271520964565 0.1233917627620729 0  0.7964897648514618 0.1211426571931604 0  1.065625 0.3689344961371042 0  1.085849084308977 0.3170853572226867 0  0.4702981435440001 0.260434880697798 0  1.577403511714593 0.05463601888079143 0  0.05622663515370135 0.05493816910862376 0  0.3267207591099919 0.3566194660323104 0  0.9003051618565143 0.3564049499960621 0  1.751571320346033 0.3651102912045228 0  0.1583785085108421 0.2994699345738728 0  0.1455283439499995 0.3542795598723423 0  2.2 0.35875 0  0.2347662494194072 0.298325008655211 0  0.1527284455616188 0.1065771775690181 0  0.1382139529076665 0.05427454456341477 0  0.8749341636311069 0.05110114999892954 0  0.643661668713109 0.05693499781019222 0  1.466879772203159 0.3611261772912453 0  1.990280163552011 0.3564754268533217 0  1.17471064520912 0.2990917256188288 0  0.5202693090594349 0.206382495511728 0  0 0.25625 0  2.2 0.25625 0  2.2 0.05125 0  0 0.15375 0  1.853978576207987 0.35875 0  0.9787513713939683 0.1487523696999336 0  0.240625 0.3722153812029779 0  1.515638456102889 0.2882700110184686 0  0.09048297387599738 0.3637717362208066 0  2.150453692751374 0.2387066338105111 0  1.323782677156475 0.04897634338873398 0  0.8074131292871642 0.3624701995505916 0  1.409375 0.03715320121951221 0  1.406484531114799 0.1087852750766809 0  1.134375 0.03715320121951218 0  1.627401732573545 0.04552157221025036 0  0.1170173172005315 0.1427610859166811 0  2.045405893604797 0.1105340662939892 0  1.255408269734577 0.1577307500159216 0  2.028125 0.03707597992059326 0  0.4743610090857199 0.1421513964721819 0  0.9354010469015898 0.250631300585664 0  0.04420832937638274 0.128125 0  0.8922386349349938 0.0992956419364831 0  0.1197849154434487 0.2663398672460083 0  1.248258025468107 0.2565907092181813 0  0.3746885856929528 0.370723531618974 0  1.203125 0.0366132337404304 0  0.5724622277005015 0.2751253816079333 0  0.3365425205162783 0.08395777655057959 0  2.072662025974815 0.2975086504196739 0  0.4581080832182547 0.3648371739579888 0  0.3874522734668214 0.2295447548840689 0  0.7827853612484443 0.04106550386289586 0  1.887722846421017 0.1760882698830035 0  1.472640588990488 0.1118278026240017 0  1.865937103925594 0.2604137786483804 0  1.463913572748262 0.2030442564990043 0  1.376426316059077 0.3186741374914345 0  0.6641993820150034 0.3141688596240831 0  0.2943117490824315 0.2130987422685822 0  0.3478153998082709 0.1666571081082676 0  0.3427990510599805 0.2575950027870776 0  0.7997118993855807 0.2216171933356366 0  
[...]
<PointData  Vectors="f_31"> 
<DataArray  type="Float64"  Name="f_31"  NumberOfComponents="3" format="ascii">4.0513700988544551e-07 -1.1838437419690448e-06 0.0000000000000000e+00  -4.3951635535973769e-06 1.8573950843081084e-06 0.0000000000000000e+00  4.2711446751201610e-06 1.9859203653317724e-08 0.0000000000000000e+00  -1.8447500848878411e-05 1.6629375475228358e-07 0.0000000000000000e+00  6.5119557150046623e-05 -5.0876885455445902e-05 0.0000000000000000e+00  4.7287223364007970e-05 -2.2138450237787229e-05 0.0000000000000000e+00  7.0979845538557653e-05 3.4675522035676561e-06 0.0000000000000000e+00  4.3808970728912818e-05 -1.6347383491270191e-05 0.0000000000000000e+00  -1.1844852706205386e-05 -2.1613740425167208e-05 0.0000000000000000e+00  -9.0698647850462436e-06 5.2337842841570805e-06 0.0000000000000000e+00  3.2078228891829010e-06 7.2274015895945191e-06 0.0000000000000000e+00  -1.1832018163624384e-06 -6.2322006776776755e-06 0.0000000000000000e+00  1.0037943140689420e-05 1.0331039366509232e-05 0.0000000000000000e+00  3.5043623006946782e-05 1.1423080381992484e-05 0.0000000000000000e+00  -3.5299393777670365e-06 -1.5378295278458172e-08 0.0000000000000000e+00  -8.2813322179230094e-07 -6.7938918017028027e-08 0.0000000000000000e+00  1.5000038111672758e+00 1.2529506930418251e-06 0.0000000000000000e+00  -8.7156933098083477e-06 -3.4562904358898652e-08 0.0000000000000000e+00  1.9439794335063239e-06 6.2718831520705275e-08 0.0000000000000000e+00  2.8961301070044149e-06 3.1625806305346026e-06 0.0000000000000000e+00  -8.9707441913593243e-06 -1.9857751732882480e-06 0.0000000000000000e+00  -1.9781802949681983e-06 -5.3356753182396159e-07 0.0000000000000000e+00  -1.9300911313532674e-06 1.9883281184326605e-07 0.0000000000000000e+00  6.7605836297123987e-07 1.1873768112369162e-07 0.0000000000000000e+00  -6.2181962098967463e-06 -1.6468951849042617e-07 0.0000000000000000e+00  -4.5265815692810586e-06 -5.1575637743086174e-08 0.0000000000000000e+00  -1.3237768554911575e-06 -1.8894352333424412e-07 0.0000000000000000e+00  -4.1521045136657037e-06 1.1432163087079208e-07 0.0000000000000000e+00  -3.5557481505406333e-06 2.5159009756172888e-09 0.0000000000000000e+00  1.0731941891273398e+00 2.6487320345565432e-05 0.0000000000000000e+00  1.0731195372192117e+00 2.0561749570246227e-05 0.0000000000000000e+00  1.0722028949756923e+00 -1.2687542413758143e-03 0.0000000000000000e+00  1.0730719437761924e+00 -1.0938854431717332e-04 0.0000000000000000e+00  1.0729660107357848e+00 9.2433444772437248e-06 0.0000000000000000e+00  1.0737576288638317e+00 1.0207964443961251e-04 0.0000000000000000e+00  1.0280588831176878e+00 -1.1290252500596754e-02 0.0000000000000000e+00  1.0730562635967795e+00 1.3753995785973402e-05 0.0000000000000000e+00  4.6012927396255282e-07 -1.8079291935808413e-07 0.0000000000000000e+00  -9.9527966058610798e-07 2.2244018473652702e-07 0.0000000000000000e+00  1.0730461665720050e+00 -8.1486696469712809e-04 0.0000000000000000e+00  -9.1553541006272817e-06 7.3331865115590428e-08 0.0000000000000000e+00  -3.6281588820229757e-06 7.7204612098402760e-07 0.0000000000000000e+00  -7.9136957421760737e-06 -7.1585927293528432e-08 0.0000000000000000e+00  1.0731442479595632e+00 3.3332498927114492e-05 0.0000000000000000e+00  -2.2978596213682370e-06 8.8762065169885807e-08 0.0000000000000000e+00  -6.0800115224687966e-06 3.3433151325249654e-07 0.0000000000000000e+00  -3.1312367688573085e-08 7.0337250858575330e-08 0.0000000000000000e+00  1.0732178259606451e+00 -4.0399058448092667e-04 0.0000000000000000e+00  -2.7755259643955073e-06 5.5335767297802367e-09 0.0000000000000000e+00  1.3885413078051230e-06 -1.5333314975388246e-07 0.0000000000000000e+00  2.9872926219586638e-06 1.5483043218973006e-07 0.0000000000000000e+00  -8.4903462222933360e-06 4.0829611679980852e-08 0.0000000000000000e+00  2.9219306912414258e-05 -1.1296016000885446e-05 0.0000000000000000e+00  2.8443457661495356e-05 2.2598954859239789e-06 0.0000000000000000e+00  -9.4151749229030163e-08 1.2106827339160257e-07 0.0000000000000000e+00  1.0729301595812262e+00 -4.5586386519350326e-05 0.0000000000000000e+00  -1.4951802000809906e-06 -3.7362732165139809e-08 0.0000000000000000e+00  1.0731226211451801e+00 -5.3061291896143858e-05 0.0000000000000000e+00  1.0730292804064283e+00 -2.1989583172153633e-05 0.0000000000000000e+00  1.0730061059198341e+00 -8.5098375881938846e-05 0.0000000000000000e+00  1.0729436766212022e+00 -1.4982292658430188e-04 0.0000000000000000e+00  1.0732093382276353e+00 1.0767780971399141e-04 0.0000000000000000e+00  1.2667260436530392e+00 -2.4203382257048278e-01 0.0000000000000000e+00  1.0730353119271370e+00 -4.8342928257147660e-05 0.0000000000000000e+00  1.0731905817602105e+00 1.8072752743246117e-04 0.0000000000000000e+00  1.0729915591291619e+00 -2.7163240897754304e-05 0.0000000000000000e+00  1.0756124420731499e+00 -4.0556997966136451e-03 0.0000000000000000e+00  1.0718621442341529e+00 1.0744748366313867e-03 0.0000000000000000e+00  1.1094469437285377e+00 2.5936755177241744e-01 0.0000000000000000e+00  1.1249979215084716e+00 2.4375607664647064e-06 0.0000000000000000e+00  1.1249892098419001e+00 -6.3295323011333775e-07 0.0000000000000000e+00  1.0731065586762361e+00 2.9601044689497288e-05 0.0000000000000000e+00  1.0830664369526903e+00 2.6450528176009496e-02 0.0000000000000000e+00  1.0670821969444384e+00 -3.3878215827222334e-03 0.0000000000000000e+00  1.0965458042737795e+00 -3.1903397685493745e-02 0.0000000000000000e+00  1.0737253648063321e+00 -9.5034056287990039e-04 0.0000000000000000e+00  1.0729943956220767e+00 2.0710306166369264e-04 0.0000000000000000e+00  1.0728273597392513e+00 8.8715547541398770e-05 0.0000000000000000e+00  1.0728539213536363e+00 -8.5021112754948568e-06 0.0000000000000000e+00  1.0725197542327312e+00 -4.1130658851932421e-04 0.0000000000000000e+00  1.0722118487163788e+00 4.8141986744962224e-04 0.0000000000000000e+00  1.0731444858549497e+00 -1.0844177726634424e-04 0.0000000000000000e+00  1.0728756328002464e+00 9.6747865184389247e-05 0.0000000000000000e+00  1.0729449931620134e+00 -4.9653658370151027e-05 0.0000000000000000e+00  1.0731457677922835e+00 1.4897852334815371e-04 0.0000000000000000e+00  1.0731525855920450e+00 8.8064529089412747e-04 0.0000000000000000e+00  1.0730549210889886e+00 -2.4215272039616751e-04 0.0000000000000000e+00  1.0730411377928037e+00 -2.2653061886715172e-05 0.0000000000000000e+00  1.0730335198313183e+00 -8.0722059759795667e-05 0.0000000000000000e+00  1.0726259097433806e+00 -2.7882397296542035e-04 0.0000000000000000e+00  1.0729358729478562e+00 3.5785133429283332e-05 0.0000000000000000e+00  1.0730211141589854e+00 1.6578499928502034e-05 0.0000000000000000e+00  1.1987942668189024e+00 2.3167858973167132e-01 0.0000000000000000e+00  1.0731066856711953e+00 6.3157114118318939e-05 0.0000000000000000e+00  3.5418515164737463e-01 -2.4009258215657683e-01 0.0000000000000000e+00  1.0727413904250622e+00 -4.9522488740764905e-04 0.0000000000000000e+00  1.0730762122981934e+00 -3.3163068528371529e-05 0.0000000000000000e+00  1.2220999770119521e+00 3.7873815627896923e-01 0.0000000000000000e+00  1.0730655990618154e+00 4.2038219549760363e-05 0.0000000000000000e+00  1.5266850825202249e+00 1.2789263472540244e-01 0.0000000000000000e+00  1.1609586873564683e+00 -2.3061013897346042e-01 0.0000000000000000e+00  -4.1732991593055548e-07 -9.8756581462945729e-08 0.0000000000000000e+00  1.0711546734720017e+00 4.7657639846058125e-04 0.0000000000000000e+00  -3.1179812785589152e-06 6.4098657747939486e-08 0.0000000000000000e+00  -8.0151218022952704e-06 -2.0787706241298247e-07 0.0000000000000000e+00  1.0731715377083335e+00 -5.0639997539903993e-05 0.0000000000000000e+00  -2.1550016136064600e-05 3.6811387837602544e-06 0.0000000000000000e+00  1.0726760448567760e+00 -2.3031847311248978e-04 0.0000000000000000e+00  -5.3461776639715465e-06 5.7086782715093329e-08 0.0000000000000000e+00  -2.9917351954376174e-06 -1.2704522771936072e-07 0.0000000000000000e+00  1.0731884829750213e+00 -2.3322223105123759e-05 0.0000000000000000e+00  1.6222266681101025e-06 6.3149623108550903e-07 0.0000000000000000e+00  1.0536314278849890e+00 -1.1683383947330307e-01 0.0000000000000000e+00  1.4167586214731662e+00 -3.5760363567864234e-01 0.0000000000000000e+00  1.0730200540556765e+00 -1.4957776022182784e-04 0.0000000000000000e+00  1.3401829315972043e+00 -1.0980313709554504e-01 0.0000000000000000e+00  1.0665830648498567e+00 -1.7891784330913311e-02 0.0000000000000000e+00  1.3738720682430279e+00 1.1955104466381178e-01 0.0000000000000000e+00  1.0608117357097369e+00 8.4034967127519806e-03 0.0000000000000000e+00  1.0729787985314061e+00 2.4802172604519047e-05 0.0000000000000000e+00  1.0721349061098526e+00 -4.5552125467684463e-04 0.0000000000000000e+00  -5.4415728196455216e-07 1.6330415911792510e-07 0.0000000000000000e+00  1.0730496077582201e+00 -9.0195660938520971e-06 0.0000000000000000e+00  1.0730983813367923e+00 -1.8997568962045213e-04 0.0000000000000000e+00  1.0730571723608238e+00 3.3319413327318651e-05 0.0000000000000000e+00  1.0729006310590323e+00 -5.7193808382962337e-06 0.0000000000000000e+00  1.0726913742128346e+00 -2.6897271282268637e-04 0.0000000000000000e+00  -4.4262281963286830e-06 -2.2306083069985452e-07 0.0000000000000000e+00  1.0731009362499924e+00 5.9672601610346678e-05 0.0000000000000000e+00  1.0721469375984130e+00 1.4742333684567423e-04 0.0000000000000000e+00  1.4482568444914206e+00 -1.8459775923566419e-02 0.0000000000000000e+00  1.0730263901856476e+00 4.4045243927858173e-05 0.0000000000000000e+00  1.0729963853223154e+00 -8.5377202063489306e-05 0.0000000000000000e+00  -1.0459645992288969e-06 2.0099228845472124e-08 0.0000000000000000e+00  -1.6423044766916697e-05 2.2160266937971205e-07 0.0000000000000000e+00  1.0731418626077518e+00 -8.3447638016966225e-04 0.0000000000000000e+00  1.0724003375613269e+00 -2.5345146222532417e-04 0.0000000000000000e+00  1.1633617146882120e+00 -6.5487086519002438e-02 0.0000000000000000e+00  1.0731723265817517e+00 -4.8401116344793662e-05 0.0000000000000000e+00  5.1411599303466424e-06 7.7861775371272060e-06 0.0000000000000000e+00  6.5624940177022295e-01 1.1574861885063087e-06 0.0000000000000000e+00  1.0714977383089834e+00 -2.1970023151422487e-04 0.0000000000000000e+00  1.0813957671158176e+00 -1.0501579030805289e-02 0.0000000000000000e+00  1.0745031628237622e+00 6.3367612900125407e-03 0.0000000000000000e+00  -6.3114472643860850e-06 4.3659024060266695e-07 0.0000000000000000e+00  1.0713458191684289e+00 8.7479305717720829e-04 0.0000000000000000e+00  1.0730555575721463e+00 -2.7088870536781810e-05 0.0000000000000000e+00  -5.3165794117527091e-06 3.4362541563023233e-07 0.0000000000000000e+00  -1.2824212688266790e-05 1.9705439269844559e-07 0.0000000000000000e+00  -7.5488307596291963e-06 8.2560740392959287e-08 0.0000000000000000e+00  7.4179082914670093e-07 4.2230951576437417e-08 0.0000000000000000e+00  -4.5533415463046276e-06 3.5351438672653206e-08 0.0000000000000000e+00  -1.0532512517260894e-06 -4.7556492115136670e-08 0.0000000000000000e+00  -1.4181517033140807e-06 -2.3837729097215211e-07 0.0000000000000000e+00  -1.1495614175408975e-06 -5.4098643798422785e-07 0.0000000000000000e+00  5.7887203553761042e-06 -1.9912072362297192e-06 0.0000000000000000e+00  -1.3364692604292131e-05 4.0038192214665335e-07 0.0000000000000000e+00  -2.2405781955067008e-05 -3.7793047294069740e-06 0.0000000000000000e+00  1.5413889328065511e-05 -1.1083556018888706e-05 0.0000000000000000e+00  -1.9787413955600909e-07 3.4876269530278356e-08 0.0000000000000000e+00  -7.8830801402251298e-06 -1.2946276758822121e-07 0.0000000000000000e+00  -5.0037786862807315e-06 2.0014497838206326e-07 0.0000000000000000e+00  -1.1388378967556697e-06 -1.9129570381116501e-08 0.0000000000000000e+00  -8.7073976093093787e-06 -1.7053024526082688e-07 0.0000000000000000e+00  -2.5516671806737724e-06 -7.9758052028850718e-08 0.0000000000000000e+00  -2.2301750360773090e-06 -2.1301362684844987e-07 0.0000000000000000e+00  1.0687581461042315e+00 1.1018464902227006e-03 0.0000000000000000e+00  1.0718488793449752e+00 1.8749788818434951e-04 0.0000000000000000e+00  1.0721729380592080e+00 -4.7524748950654271e-04 0.0000000000000000e+00  1.0718194519938176e+00 5.8668213254741368e-05 0.0000000000000000e+00  1.0730972196714950e+00 -2.2244702808588189e-07 0.0000000000000000e+00  1.0730890432428435e+00 -2.8801850520195478e-06 0.0000000000000000e+00  1.0711162612438685e+00 -5.1683230847410797e-04 0.0000000000000000e+00  1.0698945837970755e+00 1.1068118336435442e-03 0.0000000000000000e+00  9.2100232657410019e-01 4.8200455384352525e-02 0.0000000000000000e+00  1.2169643801441141e+00 7.9645744309639041e-02 0.0000000000000000e+00  9.8210262440069440e-01 5.3181224869577715e-01 0.0000000000000000e+00  1.0732687711819153e+00 1.6683201683373921e-04 0.0000000000000000e+00  1.0732183875609587e+00 9.0463721732451653e-05 0.0000000000000000e+00  1.0731171921646037e+00 9.7072893733965031e-05 0.0000000000000000e+00  1.0730174946467952e+00 1.2163072850505707e-05 0.0000000000000000e+00  1.0700378875570540e+00 -1.3650233278418732e-04 0.0000000000000000e+00  1.0717783474445035e+00 -1.5470337787990202e-04 0.0000000000000000e+00  1.0715923701523908e+00 4.0059067437043895e-05 0.0000000000000000e+00  1.0727609516105330e+00 -2.1938181763642064e-04 0.0000000000000000e+00  1.0734401667266942e+00 -4.1329740355617201e-04 0.0000000000000000e+00  1.0709677657234160e+00 -8.9833321086741768e-05 0.0000000000000000e+00  1.3059488240161485e+00 -4.7638989125771930e-01 0.0000000000000000e+00  1.0731121974552731e+00 -8.1009144181541867e-07 0.0000000000000000e+00  1.0730514410178673e+00 3.0590836800773805e-05 0.0000000000000000e+00  1.0731867174733190e+00 5.3383209576835944e-06 0.0000000000000000e+00  1.0712522843333758e+00 -8.9787818539142905e-05 0.0000000000000000e+00  1.0731046959190986e+00 -4.1575892321613037e-05 0.0000000000000000e+00  1.0729993386495926e+00 -3.4191620987941284e-05 0.0000000000000000e+00  1.0711572425271838e+00 2.8517550671462087e-04 0.0000000000000000e+00  1.0730975217805283e+00 2.1614019601170412e-05 0.0000000000000000e+00  1.0719192535549547e+00 5.1602938705636145e-04 0.0000000000000000e+00  1.0734061664776819e+00 -2.1707203048185885e-03 0.0000000000000000e+00  6.5624711970444627e-01 -1.7602020641936317e-07 0.0000000000000000e+00  1.0703116070995002e+00 2.1238816163477575e-04 0.0000000000000000e+00  1.0710930789823772e+00 -4.2959864038167380e-04 0.0000000000000000e+00  1.0622572331220561e+00 8.4084456535145333e-02 0.0000000000000000e+00  1.0682539990139059e+00 1.0680684575389836e-03 0.0000000000000000e+00  1.0728430483189662e+00 -3.0229455116308516e-04 0.0000000000000000e+00  1.0729249546039041e+00 -4.5770290123273886e-05 0.0000000000000000e+00  1.0733300451115730e+00 -9.2620247310950857e-05 0.0000000000000000e+00  1.0729649207751162e+00 3.1710861204878379e-05 0.0000000000000000e+00  1.0730216263896968e+00 1.0971544121456504e-04 0.0000000000000000e+00  1.1051845431320182e+00 1.6762638640083531e-02 0.0000000000000000e+00  1.0713457696163575e+00 2.0854520919057007e-03 0.0000000000000000e+00  1.0669773400889881e+00 -5.5876020636489582e-04 0.0000000000000000e+00  1.0730828206875465e+00 -1.3861181216390792e-05 0.0000000000000000e+00  1.0729996217211524e+00 -1.7585712867421142e-04 0.0000000000000000e+00  1.0719005771914174e+00 -4.2398353150984534e-03 0.0000000000000000e+00  1.0735135846753536e+00 5.7133700015722893e-04 0.0000000000000000e+00  1.0816064886234176e+00 -5.7349310877537031e-03 0.0000000000000000e+00  1.0709920885150839e+00 -3.8897072510191871e-04 0.0000000000000000e+00  1.0608523212417873e+00 6.9772871925296090e-04 0.0000000000000000e+00  9.4338816039120210e-01 8.2234248789390479e-02 0.0000000000000000e+00  1.0653687430191519e+00 -1.6432580765667042e-03 0.0000000000000000e+00  1.0689260798190101e+00 2.0472683893305336e-03 0.0000000000000000e+00  1.0730272482235379e+00 4.2633368982954335e-05 0.0000000000000000e+00  1.0731104821685307e+00 -1.9732356886925851e-04 0.0000000000000000e+00  1.2262616569224061e+00 1.5465533566712483e-01 0.0000000000000000e+00  1.0722973062495846e+00 2.3428566473629971e-04 0.0000000000000000e+00  1.0727709738964799e+00 5.7132044637396204e-05 0.0000000000000000e+00  1.0730665641706048e+00 2.4871695138076722e-05 0.0000000000000000e+00  1.0732230601248560e+00 3.5205806542938569e-04 0.0000000000000000e+00  1.3443834948502291e+00 8.4828715233213114e-02 0.0000000000000000e+00  1.0729204668791881e+00 -1.2647218257317922e-05 0.0000000000000000e+00  1.0729786932046388e+00 -1.6166216900530903e-05 0.0000000000000000e+00  1.0732392287661447e+00 1.0348670618051477e-04 0.0000000000000000e+00  1.0729683853116836e+00 -8.9282218465703566e-05 0.0000000000000000e+00  1.0609271190284266e+00 -7.4337927498410679e-05 0.0000000000000000e+00  1.0595927492913675e+00 -1.4904282789074184e-05 0.0000000000000000e+00  1.0692024387188699e+00 3.1148463384083046e-04 0.0000000000000000e+00  1.0712885906278995e+00 4.4717411487358339e-05 0.0000000000000000e+00  1.0719600350216065e+00 -1.2850701449048548e-04 0.0000000000000000e+00  1.0730427722944835e+00 9.9685238652384999e-06 0.0000000000000000e+00  1.0607201289731132e+00 -8.7470036706546479e-04 0.0000000000000000e+00  1.0731635634962018e+00 4.0156735791768828e-06 0.0000000000000000e+00  1.0731812256400313e+00 2.3654359199728292e-05 0.0000000000000000e+00  1.3452496167604950e+00 -5.6281510154826180e-02 0.0000000000000000e+00  1.0730920816021270e+00 -2.1222684131327524e-05 0.0000000000000000e+00  1.0731257448040830e+00 1.7696081998299607e-05 0.0000000000000000e+00  1.0727281589000597e+00 -2.6536855158997962e-04 0.0000000000000000e+00  1.0509756170681437e+00 -1.3016648276841208e-04 0.0000000000000000e+00  1.0729756881022157e+00 -1.0087746577807140e-04 0.0000000000000000e+00  1.0568065421107216e+00 -4.3799918228956333e-02 0.0000000000000000e+00  1.0685524632626999e+00 -8.2836793678196178e-04 0.0000000000000000e+00  7.4502997971298002e-01 -5.7583094921874266e-02 0.0000000000000000e+00  1.3242362333795750e+00 -8.8774590311489945e-02 0.0000000000000000e+00  1.0656737210589877e+00 1.0989389436493518e-03 0.0000000000000000e+00  1.0592518845276127e+00 5.1531172491267119e-04 0.0000000000000000e+00  1.5406588477944290e+00 4.5920862801792695e-01 0.0000000000000000e+00  9.4104694413254697e-01 2.2096235064629691e-01 0.0000000000000000e+00  1.0650537249049692e+00 -4.4556083979277797e-04 0.0000000000000000e+00  1.7692084118155043e+00 2.4928370529989380e-01 0.0000000000000000e+00  1.4972908962710221e+00 -5.0547532821888763e-01 0.0000000000000000e+00  9.4242170711615902e-01 -2.1212068238778981e-01 0.0000000000000000e+00  1.0638132977421668e+00 8.3279876748765033e-05 0.0000000000000000e+00  1.0664964749595274e+00 -1.8484643492079446e-04 0.0000000000000000e+00  1.0644245802508674e+00 -1.1761340954568801e-04 0.0000000000000000e+00  1.0687193654519584e+00 -7.3752075126198120e-04 0.0000000000000000e+00  1.0730150878826512e+00 6.1697155133608905e-06 0.0000000000000000e+00  1.0559900705106875e+00 -6.0404566574736793e-03 0.0000000000000000e+00  1.4062432649480314e+00 1.7201345463269196e-06 0.0000000000000000e+00  1.0736370917033666e+00 -2.6223687862854639e-04 0.0000000000000000e+00  1.0662719569483410e+00 6.4608386776438692e-04 0.0000000000000000e+00  1.4062422048076717e+00 1.9663034467856096e-07 0.0000000000000000e+00  1.0685313992126446e+00 -8.0158358955018073e-04 0.0000000000000000e+00  1.0729173909948617e+00 -1.2134206980571716e-04 0.0000000000000000e+00  1.2491993040892260e+00 5.7253532996820955e-02 0.0000000000000000e+00  1.0728868929109394e+00 -1.5867084464719967e-05 0.0000000000000000e+00  7.1920630856291234e-01 6.0712980075255878e-02 0.0000000000000000e+00  1.0733034048297398e+00 -1.6279625650916554e-05 0.0000000000000000e+00  1.0656593238504366e+00 4.6759332983048116e-04 0.0000000000000000e+00  1.0622255297517740e+00 6.4604042959145601e-04 0.0000000000000000e+00  1.0365879001451694e+00 -6.4539794639082728e-04 0.0000000000000000e+00  1.0730867777197362e+00 -1.3045851542429514e-04 0.0000000000000000e+00  1.0380028741483440e+00 7.0908118746788819e-04 0.0000000000000000e+00  1.0602617345462861e+00 -