<?xml version="1.0"?>
<VTKFile type="UnstructuredGrid"  version="0.1"  >
<UnstructuredGrid>
<Piece  NumberOfPoints="2446" NumberOfCells="4585">
<Points>
<DataArray  type="Float64"  NumberOfComponents="3"  format="ascii">0 0.41 0  0 0 0  2.2 0 0  2.2 0.41 0  0.2404508497187474 0.2293892626146237 0  0.25 0.2 0  0.2404508497187474 0.1706107373853764 0  0.2154508497187474 0.1524471741852423 0  0.1845491502812526 0.1524471741852423 0  0.1595491502812526 0.1706107373853764 0  0.15 0.2 0  0.1595491502812526 0.2293892626146237 0  0.1845491502812527 0.2475528258147577 0  0.2154508497187474 0.2475528258147577 0  1.1 0 0  1.1 0.41 0  0 0.205 0  0.55 0 0  0.55 0.41 0  0.275 0 0  0.275 0.41 0  1.65 0.41 0  1.65 0 0  0.8250000000000001 0.41 0  0.8250000000000001 0 0  1.375 0 0  1.375 0.41 0  1.925 0 0  1.925 0.41 0  1.5125 0.205 0  1.7875 0.205 0  0.6875 0.205 0  0.9625000000000001 0.205 0  1.2375 0.205 0  2.2 0.205 0  0.4687002074688797 0.2068568464730291 0  1.99375 0.2152743902439024 0  2.0625 0 0  2.0625 0.41 0  2.2 0.3075 0  0.4125 0 0  0.4125 0.41 0  1.7875 0.41 0  1.375 0.1486128048780488 0  1.5125 0 0  1.7875 0 0  1.5125 0.41 0  0.8250000000000001 0.2613871951219511 0  0.9625000000000001 0.41 0  0.9625000000000001 0 0  0.6875 0.41 0  0.6875 0 0  0.1375 0 0  0.1375 0.41 0  1.2375 0 0  1.1 0.1486128048780487 0  1.2375 0.41 0  1.65 0.1486128048780487 0  1.126715909090909 0.2793064024390244 0  1.676715909090909 0.2793064024390244 0  0.8517159090909092 0.1306935975609756 0  1.348284090909091 0.2793064024390244 0  0.34375 0.3032389320646208 0  1.894702181800738 0.1282910975492754 0  2.092797818199262 0.1282910975492754 0  1.85625 0.3075 0  0.61875 0.3075 0  0.61875 0.1025 0  0.3648540804333487 0.1240075933101478 0  0 0.3075 0  0 0.1025 0  2.099172119769978 0.25625 0  0.48125 0.09238439620688085 0  0.5781001037344399 0.2059284232365146 0  0.48125 0.3196743479159776 0  0.7265881057911006 0.3055240343720796 0  1.99375 0.08395950269330846 0  1.459960956013612 0.3075 0  1.569025960719943 0.2986889805672169 0  0.75625 0.08213100772579164 0  1.03125 0.3278689922742084 0  0.923871252904788 0.3078247185783941 0  1.959375 0.3126371951219512 0  1.749222215368287 0.1025 0  1.275777784631713 0.1025 0  2.2 0.1025 0  1.225938124459196 0.3075 0  1.550777784631713 0.1025 0  1.000777784631713 0.1025 0  1.44375 0.07430640243902442 0  1.16875 0.07430640243902437 0  1.899250267340833 0.2229966846119207 0  0.1020898364287272 0.3140258291809757 0  1.766482954545455 0.2934032012195123 0  0.3405058858996321 0.2119987970531874 0  0.7710785630958338 0.1710968191298857 0  1.046078563095834 0.2389031808701144 0  0.2 0.3400647632937836 0  1.421109702350723 0.2261157654379721 0  0.2800464974185557 0.08982544815605742 0  0.098916018031319 0.09171660955420841 0  2.13125 0 0  2.118919042110979 0.3422084711244843 0  1.30625 0.41 0  0.89375 0 0  1.597888256393107 0.2173787389261347 0  0.20625 0 0  1.829299675393195 0.07400700849299596 0  1.71875 0.41 0  1.16875 0.41 0  2.038220665644273 0.332420740103091 0  0.34375 0 0  0.417496017710808 0.2696595573092803 0  0.2 0.07687845740457822 0  0.9295982307099278 0.1343158415898188 0  0.07390688010811153 0.1697064032433452 0  0.5238366813727013 0.2578302467013575 0  0.05452951551825875 0.25625 0  0.5229630068078351 0.1548816096928243 0  1.452769549894695 0.1548122580621249 0  1.369219062229598 0.07430640243902442 0  1.30625 0 0  0.8504409521244898 0.3356935975609756 0  0.8821881244591965 0.205 0  1.720943423819132 0.1714577452753128 0  1.157188124459196 0.205 0  1.094219062229598 0.07430640243902437 0  1.03125 0 0  1.304056576180868 0.1714577452753128 0  1.67579304192913 0.07430640243902437 0  0.2751941921308361 0.3346083473122598 0  1.209670467133757 0.1362100266964769 0  1.025335513626278 0.1700681449722324 0  0.7562500000000001 0.41 0  1.58125 0 0  0.7567170593862014 0.2409196493502535 0  0.6926714215682891 0.1272249611432207 0  0.4139715849905988 0.3397932387114203 0  0.9840787304190477 0.2717749043358119 0  0.06875000000000001 0.41 0  0 0.35875 0  0.9281250000000001 0.06276726142697993 0  0.5507396469029935 0.3219409231578227 0  0.5504468037989405 0.09136885600634273 0  1.58125 0.41 0  1.631724228912893 0.3381867502687533 0  1.825608881788174 0.14499488549201 0  1.85625 0 0  1.44375 0 0  1.44375 0.41 0  1.85625 0.41 0  2.13125 0.41 0  0.7562500000000001 0 0  0.89375 0.41 0  0.4812500000000001 0 0  0.34375 0.41 0  0.4812500000000001 0.41 0  0.20625 0.41 0  0.06875000000000001 0 0  1.16875 0 0  0.61875 0 0  0.61875 0.41 0  1.03125 0.41 0  1.71875 0 0  1.99375 0 0  1.99375 0.41 0  1.340625 0.3489494290853124 0  1.134375 0.3489494290853123 0  1.700180620188976 0.3438659752031281 0  2.135782184673599 0.07126652247502523 0  1.668441847249787 0.2129203728327609 0  1.295782514339747 0.2378437748815763 0  0.8233075729931248 0.06842334294821524 0  1.409375 0.3520314716057996 0  0.403505597322782 0.182067236678212 0  0.378125 0.05794951541303489 0  0.3043468223249023 0.1518321115979534 0  2.129248544730567 0.1906135162504124 0  2.060771381434487 0.1989445750470348 0  2.013252586573865 0.1496169464686054 0  1.942766402200229 0.1734448904596831 0  1.895522487186454 0.06076163953489683 0  2.069553871656643 0.06605731020975725 0  1.274680914880868 0.3520219391081363 0  1.614713220494657 0.09473434380863296 0  0.7899021319497519 0.3149123934144827 0  0.69518737419149 0.0634051089053758 0  0.2971740475496061 0.2592172353407536 0  1.72990325744076 0.2380068107952482 0  1.356580098625191 0.2120393231351682 0  2.034370752044885 0.2668681600792073 0  1.51768709249349 0.3426260931494756 0  1.561883724969884 0.1650446847858835 0  1.197344062229598 0.2523725417393646 0  1.804085235518364 0.3468178408964637 0  1.817887819205233 0.2589243285818559 0  1.905897727272727 0.3485060975609756 0  0.6719798073392919 0.2688965171178177 0  0 0.05125 0  0.653125 0.35875 0  0.6396896119294488 0.1627615407790282 0  0.4274150154087412 0.1242548552168279 0  1.192836486056382 0.3562350748565544 0  0.8279124365364005 0.183856489168822 0  1.097485222388854 0.2083571153401724 0  1.28257088594801 0.2944411014911587 0  1.474860187679412 0.2504218616229368 0  1.406767003493824 0.2829282258560709 0  0.446875 0.04619219810344041 0  0.515625 0.04585361801037557 0  0.592043440706648 0.05125 0  1.845656689180403 0.1998310418452388 0  2.144958525570388 0.2909790873294231 0  0.6171090763650112 0.2492366900333857 0  2.2 0.15375 0  0.5145586920831158 0.3648371739579888 0  1.57794966442982 0.3540357145964566 0  0.721875 0.3633107922168974 0  0.0496154796471391 0.333125 0  0.5843750000000001 0.3662560860076676 0  0.5810878747760798 0.1474002776121195 0  1.508991196088596 0.1421783375065625 0  0.8840670607017558 0.2640994375393898 0  0.09776612425612034 0.2204896805326566 0  1.50436820029908 0.06143401634903343 0  1.223857000523521 0.0823554862453532 0  1.153316824384777 0.1289850171317837 0  2.148922302309752 0.1258841779285271 0  0.309375 0.04312325590431198 0  1.621993280276081 0.2841214267927899 0  1.550118654119087 0.2461998729100966 0  1.327182649291491 0.1216967252533594 0  1.051977450479407 0.1221382572915816 0  1.753125 0.04556020050186112 0  1.271875 0.04556020050186116 0  0.9816084133102366 0.05126138213476004 0  1.039051841454368 0.0572224914831029 0  0.9719230514536006 0.3480477870845102 0  1.94956388244759 0.1180512551534177 0  1.949997712993411 0.04965831614304109 0  1.771961817615021 0.1530278789497521 0  1.909246823951428 0.2812757146784527 0  0.2459536687882397 0.04668633953831142 0  1.948575539857022 0.2445328248721197 0  1.697271520964565 0.1233917627620729 0  0.7964897648514618 0.1211426571931604 0  1.065625 0.3689344961371042 0  1.085849084308977 0.3170853572226867 0  0.4702981435440001 0.260434880697798 0  1.577403511714593 0.05463601888079143 0  0.05622663515370135 0.05493816910862376 0  0.3267207591099919 0.3566194660323104 0  0.9003051618565143 0.3564049499960621 0  1.751571320346033 0.3651102912045228 0  0.1583785085108421 0.2994699345738728 0  0.1455283439499995 0.3542795598723423 0  2.2 0.35875 0  0.2347662494194072 0.298325008655211 0  0.1527284455616188 0.1065771775690181 0  0.1382139529076665 0.05427454456341477 0  0.8749341636311069 0.05110114999892954 0  0.643661668713109 0.05693499781019222 0  1.466879772203159 0.3611261772912453 0  1.990280163552011 0.3564754268533217 0  1.17471064520912 0.2990917256188288 0  0.5202693090594349 0.206382495511728 0  0 0.25625 0  2.2 0.25625 0  2.2 0.05125 0  0 0.15375 0  1.853978576207987 0.35875 0  0.9787513713939683 0.1487523696999336 0  0.240625 0.3722153812029779 0  1.515638456102889 0.2882700110184686 0  0.09048297387599738 0.3637717362208066 0  2.150453692751374 0.2387066338105111 0  1.323782677156475 0.04897634338873398 0  0.8074131292871642 0.3624701995505916 0  1.409375 0.03715320121951221 0  1.406484531114799 0.1087852750766809 0  1.134375 0.03715320121951218 0  1.627401732573545 0.04552157221025036 0  0.1170173172005315 0.1427610859166811 0  2.045405893604797 0.1105340662939892 0  1.255408269734577 0.1577307500159216 0  2.028125 0.03707597992059326 0  0.4743610090857199 0.1421513964721819 0  0.9354010469015898 0.250631300585664 0  0.04420832937638274 0.128125 0  0.8922386349349938 0.0992956419364831 0  0.1197849154434487 0.2663398672460083 0  1.248258025468107 0.2565907092181813 0  0.3746885856929528 0.370723531618974 0  1.203125 0.0366132337404304 0  0.5724622277005015 0.2751253816079333 0  0.3365425205162783 0.08395777655057959 0  2.072662025974815 0.2975086504196739 0  0.4581080832182547 0.3648371739579888 0  0.3874522734668214 0.2295447548840689 0  0.7827853612484443 0.04106550386289586 0  1.887722846421017 0.1760882698830035 0  1.472640588990488 0.1118278026240017 0  1.865937103925594 0.2604137786483804 0  1.463913572748262 0.2030442564990043 0  1.376426316059077 0.3186741374914345 0  0.6641993820150034 0.3141688596240831 0  0.2943117490824315 0.2130987422685822 0  0.3478153998082709 0.1666571081082676 0  0.3427990510599805 0.2575950027870776 0  0.7997118993855807 0.2216171933356366 0  
[...]
<PointData  Vectors="f_31"> 
<DataArray  type="Float64"  Name="f_31"  NumberOfComponents="3" format="ascii">2.2234279081959227e-06 3.3986871146388397e-08 0.0000000000000000e+00  -2.2951206777590235e-06 -3.5850142736718598e-08 0.0000000000000000e+00  3.7572564531191148e-06 -2.0871523882301311e-09 0.0000000000000000e+00  -1.6220542891735219e-05 -8.9943501996774493e-09 0.0000000000000000e+00  -3.5244249751365182e-06 -3.9862607697172520e-06 0.0000000000000000e+00  -3.8052660225506951e-07 -1.8395608382185466e-05 0.0000000000000000e+00  2.5660039026005519e-06 -1.0972511731225783e-05 0.0000000000000000e+00  -5.9261639403631808e-06 4.8100796814640260e-06 0.0000000000000000e+00  -1.1733024283446121e-07 4.8041946370488827e-06 0.0000000000000000e+00  8.9744569083929286e-06 -2.5804960654503807e-06 0.0000000000000000e+00  -5.3869280590315870e-08 -2.7360492789727978e-06 0.0000000000000000e+00  -1.6567290521658508e-05 -3.9129659198292683e-06 0.0000000000000000e+00  3.7676545856491257e-06 7.7852518191477662e-06 0.0000000000000000e+00  -1.2829253820970124e-05 4.2820727290420650e-07 0.0000000000000000e+00  -2.4859365672465514e-06 6.0164026818883032e-09 0.0000000000000000e+00  9.1438802768809056e-08 -6.0101152113273444e-09 0.0000000000000000e+00  1.5000043638393743e+00 -1.9177378465938799e-06 0.0000000000000000e+00  1.1423187067527639e-05 -2.1888235264474660e-06 0.0000000000000000e+00  7.7299976593798034e-06 6.4226432447371487e-07 0.0000000000000000e+00  2.4034967520471001e-06 3.3668820169139146e-07 0.0000000000000000e+00  -2.6514669901681054e-06 2.3577723921918338e-08 0.0000000000000000e+00  4.2569160910038310e-07 -4.2076066568158250e-09 0.0000000000000000e+00  4.4168027899292524e-07 -1.3081319771571102e-08 0.0000000000000000e+00  8.4342772369483312e-08 1.1662593186558203e-07 0.0000000000000000e+00  -5.7413228356998825e-06 -4.1444927506342384e-08 0.0000000000000000e+00  -3.7357038996960488e-06 -5.5682748115733608e-10 0.0000000000000000e+00  -6.9109181156851081e-07 6.0840796770912485e-09 0.0000000000000000e+00  -2.8460549983897327e-06 1.7372968383936486e-08 0.0000000000000000e+00  -2.1276059038754463e-06 -9.8652927022596705e-09 0.0000000000000000e+00  1.1418349056254193e+00 3.8795540695580665e-05 0.0000000000000000e+00  1.1419375403728926e+00 2.8684609776222264e-05 0.0000000000000000e+00  1.1706490026958551e+00 -3.0437336295948376e-02 0.0000000000000000e+00  1.1429979213182437e+00 -2.9522157927357236e-03 0.0000000000000000e+00  1.1415091567089080e+00 -1.5207937575603992e-04 0.0000000000000000e+00  1.1418171440125329e+00 -4.5321881112227100e-05 0.0000000000000000e+00  -2.0595842513748114e-01 -2.1253598645118985e-01 0.0000000000000000e+00  1.1418292913679760e+00 -5.2570055049723806e-05 0.0000000000000000e+00  3.5270751281520840e-07 5.1052748125923987e-09 0.0000000000000000e+00  -8.2546920417256482e-07 -2.8206989121176774e-09 0.0000000000000000e+00  1.1395112620910202e+00 -3.2768966490309966e-05 0.0000000000000000e+00  -3.8672870386427955e-06 2.6735916190472834e-07 0.0000000000000000e+00  3.8905147053719700e-06 -4.3310587813596453e-07 0.0000000000000000e+00  -5.8410646440757238e-06 -8.6060399756016285e-09 0.0000000000000000e+00  1.1416944184007596e+00 6.3147533382193460e-06 0.0000000000000000e+00  1.9925362933765462e-07 -5.9729856887024205e-09 0.0000000000000000e+00  -4.0575712473763726e-06 9.5831157722616556e-09 0.0000000000000000e+00  1.1028456855618728e-06 -3.9370598027586200e-09 0.0000000000000000e+00  1.1630342702743226e+00 5.5735225301618632e-03 0.0000000000000000e+00  -1.5085892295252443e-06 -5.3347544367370578e-09 0.0000000000000000e+00  2.4422123474554675e-06 1.0934143683929654e-08 0.0000000000000000e+00  -3.9828541197907126e-06 -1.0720998152813989e-06 0.0000000000000000e+00  -1.3190963472989444e-05 1.6485661932173265e-06 0.0000000000000000e+00  -3.5131816106774634e-06 6.0864677886603491e-07 0.0000000000000000e+00  -5.8243670811268838e-06 -5.5228891985129133e-07 0.0000000000000000e+00  3.4213725906886487e-07 4.6124485776072440e-09 0.0000000000000000e+00  1.1413186511520557e+00 -6.5720226983674080e-04 0.0000000000000000e+00  -1.4985185429928241e-06 -4.3368542805256712e-10 0.0000000000000000e+00  1.1419925535961133e+00 4.7662645392135722e-05 0.0000000000000000e+00  1.1419465435665255e+00 -3.2548137710931288e-04 0.0000000000000000e+00  1.1416283981116366e+00 9.9546634818076401e-05 0.0000000000000000e+00  1.1387598923524795e+00 -1.7885435803338647e-02 0.0000000000000000e+00  1.1416524517192741e+00 -2.2408118564860098e-05 0.0000000000000000e+00  2.0308723687422106e+00 -1.1755946300399177e-01 0.0000000000000000e+00  1.1416713270261860e+00 -7.5257080401919810e-05 0.0000000000000000e+00  1.1418044225398458e+00 -1.4472064436389485e-04 0.0000000000000000e+00  1.1392672158212618e+00 2.7054431911204354e-05 0.0000000000000000e+00  1.2799766792815404e+00 2.4632450592440682e-03 0.0000000000000000e+00  1.2389015947354380e+00 1.7632103703337575e-02 0.0000000000000000e+00  1.5384134336087336e+00 1.4095770131644178e-01 0.0000000000000000e+00  1.1249989875446627e+00 -8.2931632601681019e-07 0.0000000000000000e+00  1.1249902096252851e+00 -5.1474169329579308e-07 0.0000000000000000e+00  1.1417302914396286e+00 -4.0260219978564455e-05 0.0000000000000000e+00  1.6140988935290559e+00 3.6343499438151938e-01 0.0000000000000000e+00  7.7961263668000091e-01 6.8822166835929885e-02 0.0000000000000000e+00  1.4715288480976800e+00 -2.7317749525711610e-01 0.0000000000000000e+00  1.1529723484870491e+00 1.2788989673195655e-01 0.0000000000000000e+00  1.1306337777037989e+00 2.6739366680595011e-06 0.0000000000000000e+00  1.1399419797537540e+00 -7.2111375316602342e-05 0.0000000000000000e+00  1.1407459998358247e+00 8.2840010814690492e-05 0.0000000000000000e+00  1.0761781115562710e+00 -8.0321898434106559e-02 0.0000000000000000e+00  1.1288758115361697e+00 -6.9287462630318226e-05 0.0000000000000000e+00  1.1416676446744534e+00 1.1340561412721026e-03 0.0000000000000000e+00  1.1385682512558939e+00 -1.4245307054940854e-05 0.0000000000000000e+00  1.1392202885034282e+00 -2.8996410978007964e-04 0.0000000000000000e+00  1.1399140378891035e+00 -1.2177042424431536e-04 0.0000000000000000e+00  1.1394227247500621e+00 -2.8876368357175263e-04 0.0000000000000000e+00  1.1399459707794186e+00 -1.3454332907433080e-05 0.0000000000000000e+00  1.1398367898174648e+00 1.6258506992305945e-04 0.0000000000000000e+00  1.1380166367365288e+00 -1.5844776873690490e-03 0.0000000000000000e+00  1.1172180909497937e+00 3.8258542045195924e-06 0.0000000000000000e+00  1.1168104606180955e+00 -4.1063964874350139e-05 0.0000000000000000e+00  1.1418442357730325e+00 -9.3244358256717343e-06 0.0000000000000000e+00  1.1909006269640385e+00 2.6101710883144652e-01 0.0000000000000000e+00  1.1410594444053275e+00 1.0081889058362349e-04 0.0000000000000000e+00  -5.2299748928975898e-01 7.4928851782553471e-02 0.0000000000000000e+00  1.1643092036223752e+00 -3.6846220788484943e-02 0.0000000000000000e+00  1.1423282677542206e+00 -9.6531167995856228e-04 0.0000000000000000e+00  1.4099906143237471e+00 2.3222036078193842e-01 0.0000000000000000e+00  1.1415989705513960e+00 -2.3255337967175987e-05 0.0000000000000000e+00  1.8713442241149820e+00 -1.1247115941705857e-01 0.0000000000000000e+00  1.1374484180249327e+00 -2.4398554055080618e-01 0.0000000000000000e+00  -5.5270340664189225e-07 1.0330387680447178e-08 0.0000000000000000e+00  1.1004850503759001e+00 2.5043875075235261e-04 0.0000000000000000e+00  -1.7256244012787534e-06 6.6291223410401561e-09 0.0000000000000000e+00  -6.4865128968027050e-06 4.5332240868850685e-08 0.0000000000000000e+00  1.1419224078452650e+00 2.7643412625552741e-05 0.0000000000000000e+00  1.8859025136200443e-06 -4.8347064697300849e-07 0.0000000000000000e+00  1.1161535457519292e+00 -1.5067826361771419e-05 0.0000000000000000e+00  -2.4530174434892783e-06 -6.8708932644031392e-11 0.0000000000000000e+00  -1.9867580434124268e-06 1.6173061620159785e-09 0.0000000000000000e+00  1.1228334783627225e+00 -8.3778800230678176e-06 0.0000000000000000e+00  -3.2664139527567354e-06 6.2067610179339995e-08 0.0000000000000000e+00  1.7087717658068957e+00 -4.5789379918062995e-01 0.0000000000000000e+00  1.5152141907420380e+00 -2.7995115611310550e-01 0.0000000000000000e+00  1.1395159825381607e+00 -5.7581164937307765e-03 0.0000000000000000e+00  1.3346808385829951e+00 -9.6969398345420260e-02 0.0000000000000000e+00  1.4637286079684118e+00 -2.8246731470374264e-01 0.0000000000000000e+00  1.3744327372113008e+00 1.3331007044176149e-01 0.0000000000000000e+00  1.3644824156101856e+00 4.1260674354114824e-01 0.0000000000000000e+00  1.1416680107274595e+00 5.3664412393969613e-05 0.0000000000000000e+00  1.1162461545477533e+00 -1.4282627150320965e-04 0.0000000000000000e+00  -6.1717114544477153e-07 2.8166545773937809e-09 0.0000000000000000e+00  1.1122892369939330e+00 9.3316183352823451e-03 0.0000000000000000e+00  1.1478140886011881e+00 -7.1224886310872152e-03 0.0000000000000000e+00  1.1418564683879466e+00 5.9381899393264148e-05 0.0000000000000000e+00  1.1415065844626799e+00 -3.5506890888148461e-04 0.0000000000000000e+00  1.1165602804259067e+00 -2.2930779153357227e-04 0.0000000000000000e+00  -2.8299533265753618e-06 8.2216845669734106e-09 0.0000000000000000e+00  1.1416331974827130e+00 -4.2934247032066297e-05 0.0000000000000000e+00  1.1165178645814879e+00 -5.7464598456747297e-05 0.0000000000000000e+00  1.6761249466071106e+00 7.8788510378876547e-02 0.0000000000000000e+00  1.1415843105551946e+00 -1.3805419624216570e-04 0.0000000000000000e+00  1.1414067477469061e+00 -1.6934867181539730e-03 0.0000000000000000e+00  -9.2275788688007633e-06 -2.9441546742901772e-07 0.0000000000000000e+00  -1.3039874720573904e-05 -4.0773796271354856e-09 0.0000000000000000e+00  1.2252158642915876e+00 5.8668498772792895e-03 0.0000000000000000e+00  1.2527092984619392e+00 -1.0761852157066780e-01 0.0000000000000000e+00  1.5144330067562506e+00 -2.2987435937131154e-01 0.0000000000000000e+00  1.1433768850399910e+00 -8.5314217010009198e-04 0.0000000000000000e+00  -3.1720231795996779e-06 -3.2348477757295183e-07 0.0000000000000000e+00  6.5625067655996194e-01 -2.6996857306914826e-07 0.0000000000000000e+00  1.0773547435162856e+00 -1.8233021772717220e-03 0.0000000000000000e+00  1.2750417743504767e+00 -1.0969860700005941e-01 0.0000000000000000e+00  1.3525120739066716e+00 2.1156107497882190e-01 0.0000000000000000e+00  -4.6535224645565131e-06 1.1758492656190285e-08 0.0000000000000000e+00  1.1118808518602727e+00 1.6636706307439800e-04 0.0000000000000000e+00  1.1418492201337367e+00 6.6653554066299638e-06 0.0000000000000000e+00  -3.4426540646100360e-06 9.0153307477256104e-10 0.0000000000000000e+00  -1.0222305038068357e-05 6.2997084928877223e-09 0.0000000000000000e+00  -4.0952932703446009e-06 -2.0062687947005373e-08 0.0000000000000000e+00  1.6987275142750968e-06 1.5382392628342365e-08 0.0000000000000000e+00  -2.2409569990401051e-06 -3.2002973381836064e-09 0.0000000000000000e+00  -9.5213145394636168e-06 4.1784533924420604e-08 0.0000000000000000e+00  1.1045064890798518e-06 1.6667941366222912e-08 0.0000000000000000e+00  1.0406140612171597e-06 -7.3528888790786601e-07 0.0000000000000000e+00  8.8004068168813740e-06 -3.4402648951001936e-07 0.0000000000000000e+00  7.2312916480513979e-07 6.1839375571918453e-07 0.0000000000000000e+00  -3.8846248675018634e-06 -3.0471293923084893e-07 0.0000000000000000e+00  1.0925059838745796e-06 1.1339869967674893e-07 0.0000000000000000e+00  -1.6618060322408536e-07 1.7862487149399082e-12 0.0000000000000000e+00  3.8508439767372523e-06 6.2966231894577791e-07 0.0000000000000000e+00  -1.8579346618600195e-06 7.0461074847610242e-08 0.0000000000000000e+00  -8.9129234560243516e-07 -1.2152237941424896e-08 0.0000000000000000e+00  -7.3287466404944517e-06 -4.0338435166155915e-09 0.0000000000000000e+00  -2.1259755334476020e-06 -3.3420659578208477e-09 0.0000000000000000e+00  -6.3948693069094489e-07 1.2497561934429131e-08 0.0000000000000000e+00  1.0742144684565604e+00 1.2041266534644271e-04 0.0000000000000000e+00  1.0749906634298938e+00 -6.6638099938276263e-05 0.0000000000000000e+00  1.0950047938867609e+00 1.6521631698445148e-04 0.0000000000000000e+00  1.1097018886385428e+00 -3.1015913820210331e-04 0.0000000000000000e+00  1.1419253834118128e+00 8.0864014225851593e-05 0.0000000000000000e+00  1.1415971337595725e+00 -7.3668641292194004e-05 0.0000000000000000e+00  1.0764962649577821e+00 -1.9534643583697310e-02 0.0000000000000000e+00  1.0591270279598695e+00 -2.1262077479065780e-05 0.0000000000000000e+00  -5.5226871485966134e-01 -2.5294557594730298e-02 0.0000000000000000e+00  1.5709555735774037e+00 1.4533058373236873e-01 0.0000000000000000e+00  2.6186920551058290e-01 -1.0592595992205796e-01 0.0000000000000000e+00  1.1417932624887444e+00 -5.8368626392053157e-05 0.0000000000000000e+00  1.1419084088010407e+00 -6.0184682510138106e-05 0.0000000000000000e+00  1.1419382429729015e+00 -7.0007803974595444e-05 0.0000000000000000e+00  1.1418594907365842e+00 -4.2421483736311084e-05 0.0000000000000000e+00  1.0725896235584871e+00 -4.3371452868273957e-05 0.0000000000000000e+00  1.0946862230981880e+00 -1.8240083647045414e-04 0.0000000000000000e+00  1.0597398323665503e+00 7.0206699788617161e-05 0.0000000000000000e+00  1.1374588384177888e+00 1.1576033676931666e-05 0.0000000000000000e+00  1.1401487908461401e+00 4.1593921118877199e-02 0.0000000000000000e+00  8.9809022164408936e-01 -1.2578951279358155e-01 0.0000000000000000e+00  7.0713176780518583e-01 9.3939735464832627e-02 0.0000000000000000e+00  1.1418207039552812e+00 4.7626296938447512e-05 0.0000000000000000e+00  1.1415271104612261e+00 -4.4263666273655943e-05 0.0000000000000000e+00  1.1417536176419321e+00 -1.9455372142493219e-05 0.0000000000000000e+00  1.0993132098864051e+00 1.0386242585153942e-04 0.0000000000000000e+00  1.1418808752037599e+00 8.2458130030957765e-05 0.0000000000000000e+00  1.1417547384658355e+00 -1.7523078341016881e-04 0.0000000000000000e+00  1.0846693640389755e+00 -3.6878256336634294e-05 0.0000000000000000e+00  1.1416947953345469e+00 1.8259393826740438e-05 0.0000000000000000e+00  1.0771489473387401e+00 1.2363610986507013e-04 0.0000000000000000e+00  1.4127394190841744e+00 6.9820784673858124e-03 0.0000000000000000e+00  6.5624823560950851e-01 -3.0563968781129086e-07 0.0000000000000000e+00  7.9369931397653204e-01 7.6083208432307425e-02 0.0000000000000000e+00  1.3492884665047296e+00 6.4752078499535862e-02 0.0000000000000000e+00  1.7276055347299766e+00 3.7833426947637150e-01 0.0000000000000000e+00  1.0335893954497906e+00 6.5393500119441427e-05 0.0000000000000000e+00  1.1527864793761367e+00 -1.8772815170920339e-02 0.0000000000000000e+00  1.1416139697041949e+00 -7.0887645513004096e-04 0.0000000000000000e+00  1.1413985409230269e+00 -2.7030723057078296e-05 0.0000000000000000e+00  1.1416307441942335e+00 -2.9122812943302766e-05 0.0000000000000000e+00  1.1416158135327461e+00 -5.6682835918816226e-05 0.0000000000000000e+00  1.1780801862012813e+00 1.7969580694917309e-01 0.0000000000000000e+00  8.2047603866494945e-01 1.1439079422099180e-01 0.0000000000000000e+00  7.2875502671410941e-01 -2.1887937955815100e-02 0.0000000000000000e+00  1.1418927520085043e+00 3.5995583793627823e-07 0.0000000000000000e+00  1.1413117861884607e+00 -3.8797557194162003e-06 0.0000000000000000e+00  1.4454473033949056e+00 -5.3173127313644021e-02 0.0000000000000000e+00  1.1416613537157696e+00 -3.9201952825550393e-05 0.0000000000000000e+00  7.8651915179785015e-01 -7.4195740153966905e-02 0.0000000000000000e+00  1.0483386717339263e+00 6.2362862887366930e-05 0.0000000000000000e+00  8.6827834523800562e-01 6.0707979281039541e-02 0.0000000000000000e+00  9.4260951981763641e-01 9.6220929865358615e-02 0.0000000000000000e+00  6.6308044401896471e-01 1.8317037052048641e-02 0.0000000000000000e+00  1.4674210396955680e+00 2.4384639670838099e-01 0.0000000000000000e+00  1.1417891153368307e+00 1.2087804426397751e-04 0.0000000000000000e+00  1.1490458541095474e+00 3.0569657659052554e-04 0.0000000000000000e+00  1.2249783056366153e+00 1.8232231878169702e-01 0.0000000000000000e+00  1.0772001359500400e+00 2.9663251445403765e-05 0.0000000000000000e+00  1.1286546225911729e+00 -1.1528687645875927e-04 0.0000000000000000e+00  1.1414648607403370e+00 -2.6669599224301584e-04 0.0000000000000000e+00  1.1416972990626768e+00 -2.1913943436276139e-04 0.0000000000000000e+00  1.4092320842209245e+00 1.5827708420796692e-02 0.0000000000000000e+00  1.1415653509575148e+00 5.3218557568491544e-05 0.0000000000000000e+00  1.1416564613467777e+00 -2.1118865482804543e-06 0.0000000000000000e+00  1.1415096180464892e+00 -2.5006413903030845e-05 0.0000000000000000e+00  1.1406101594128519e+00 -1.0281206588888486e-03 0.0000000000000000e+00  9.6482316844011140e-01 -2.3899585470694263e-04 0.0000000000000000e+00  9.6462290913814241e-01 -3.1336577195016445e-04 0.0000000000000000e+00  1.0152203133149644e+00 -6.1268989878391050e-04 0.0000000000000000e+00  1.0539326371160544e+00 -2.1590132277174789e-04 0.0000000000000000e+00  1.0794192310338491e+00 1.4741873680497561e-04 0.0000000000000000e+00  1.1413356570327593e+00 -7.4605254201989883e-05 0.0000000000000000e+00  1.0009371380652898e+00 -1.0864351823312771e-04 0.0000000000000000e+00  1.1419357812463429e+00 1.1352344958893438e-05 0.0000000000000000e+00  1.1415764204066383e+00 -2.0319983912385461e-05 0.0000000000000000e+00  1.3387218516178088e+00 -9.4411787446349607e-02 0.0000000000000000e+00  1.1418380991288328e+00 -3.4862442243114368e-05 0.0000000000000000e+00  1.1417074289551361e+00 -2.4228017294066277e-05 0.0000000000000000e+00  1.1385895254169434e+00 -4.2228653650841060e-02 0.0000000000000000e+00  9.1408827756370170e-01 -2.1808426491082183e-04 0.0000000000000000e+00  1.1374722060398277e+00 -2.9696840165809491e-04 0.0000000000000000e+00  1.5045742106164655e+00 -4.8421595913258270e-01 0.0000000000000000e+00  1.0384208817757368e+00 2.0523147262927700e-04 0.0000000000000000e+00  7.3720377294267359e-01 -7.6773073463171512e-02 0.0000000000000000e+00  1.4630340577731094e+00 -5.4149156211808089e-02 0.0000000000000000e+00  1.0309281144594327e+00 1.2976772527842830e-03 0.0000000000000000e+00  9.5750953807193939e-01 9.0640909408675060e-05 0.0000000000000000e+00  1.5414309948955522e+00 4.8019520045874337e-01 0.0000000000000000e+00  1.0121253395034178e+00 1.8310753910985894e-01 0.0000000000000000e+00  1.0148110711604994e+00 1.0429672197266651e-04 0.0000000000000000e+00  1.9244529183887855e+00 2.5543660009532554e-01 0.0000000000000000e+00  1.4504039173579071e+00 -5.0586902605914930e-01 0.0000000000000000e+00  9.7200359836293582e-01 -1.8949743657416529e-01 0.0000000000000000e+00  1.0051753700132593e+00 -3.7329848512471652e-03 0.0000000000000000e+00  7.9002083970703185e-01 -9.2573485748404252e-02 0.0000000000000000e+00  9.9574873048421775e-01 5.2838607294434431e-05 0.0000000000000000e+00  1.0323144862319196e+00 2.3411433098601162e-05 0.0000000000000000e+00  1.1411833492870256e+00 -1.5869298635147420e-04 0.0000000000000000e+00  2.7946014804542790e-01 -5.8143929685138061e-02 0.0000000000000000e+00  1.4062434385516012e+00 -1.7583253493683163e-06 0.0000000000000000e+00  1.1418417642175218e+00 3.2987069544103279e-05 0.0000000000000000e+00  1.0157107361235989e+00 -6.8139993604549747e-04 0.0000000000000000e+00  1.4062431687864965e+00 -1.5269350486453157e-06 0.0000000000000000e+00  1.0155400615908894e+00 -5.5436328689180273e-05 0.0000000000000000e+00  1.1407229670845043e+00 -2.9861625338723136e-03 0.0000000000000000e+00  1.1538551970994226e+00 6.1432333777010448e-02 0.0000000000000000e+00  1.1415715291135389e+00 -3.3650001542823498e-05 0.0000000000000000e+00  7.1758625730404557e-01 1.0096149943450561e-01 0.0000000000000000e+00  1.1417267937249937e+00 -4.8366895841643398e-06 0.0000000000000000e+00  9.9688145928832994e-01 -2.4554254505422296e-04 0.0000000000000000e+00  9.6444948340194481e-01 1.4907218925325294e-02 0.0000000000000000e+00  8.6236554281178479e-01 8.0364964129848337e-05 0.0000000000000000e+00  1.1408165050787908e+00 3.5342605382357587e-05 0.0000000000000000e+00  8.6298929046910644e-01 2.8664248720358303e-05 0.0000000000000000e+00  9.63155834