<?xml version="1.0"?>
<VTKFile type="UnstructuredGrid"  version="0.1"  >
<UnstructuredGrid>
<Piece  NumberOfPoints="2446" NumberOfCells="4585">
<Points>
<DataArray  type="Float64"  NumberOfComponents="3"  format="ascii">0 0.41 0  0 0 0  2.2 0 0  2.2 0.41 0  0.2404508497187474 0.2293892626146237 0  0.25 0.2 0  0.2404508497187474 0.1706107373853764 0  0.2154508497187474 0.1524471741852423 0  0.1845491502812526 0.1524471741852423 0  0.1595491502812526 0.1706107373853764 0  0.15 0.2 0  0.1595491502812526 0.2293892626146237 0  0.1845491502812527 0.2475528258147577 0  0.2154508497187474 0.2475528258147577 0  1.1 0 0  1.1 0.41 0  0 0.205 0  0.55 0 0  0.55 0.41 0  0.275 0 0  0.275 0.41 0  1.65 0.41 0  1.65 0 0  0.8250000000000001 0.41 0  0.8250000000000001 0 0  1.375 0 0  1.375 0.41 0  1.925 0 0  1.925 0.41 0  1.5125 0.205 0  1.7875 0.205 0  0.6875 0.205 0  0.9625000000000001 0.205 0  1.2375 0.205 0  2.2 0.205 0  0.4687002074688797 0.2068568464730291 0  1.99375 0.2152743902439024 0  2.0625 0 0  2.0625 0.41 0  2.2 0.3075 0  0.4125 0 0  0.4125 0.41 0  1.7875 0.41 0  1.375 0.1486128048780488 0  1.5125 0 0  1.7875 0 0  1.5125 0.41 0  0.8250000000000001 0.2613871951219511 0  0.9625000000000001 0.41 0  0.9625000000000001 0 0  0.6875 0.41 0  0.6875 0 0  0.1375 0 0  0.1375 0.41 0  1.2375 0 0  1.1 0.1486128048780487 0  1.2375 0.41 0  1.65 0.1486128048780487 0  1.126715909090909 0.2793064024390244 0  1.676715909090909 0.2793064024390244 0  0.8517159090909092 0.1306935975609756 0  1.348284090909091 0.2793064024390244 0  0.34375 0.3032389320646208 0  1.894702181800738 0.1282910975492754 0  2.092797818199262 0.1282910975492754 0  1.85625 0.3075 0  0.61875 0.3075 0  0.61875 0.1025 0  0.3648540804333487 0.1240075933101478 0  0 0.3075 0  0 0.1025 0  2.099172119769978 0.25625 0  0.48125 0.09238439620688085 0  0.5781001037344399 0.2059284232365146 0  0.48125 0.3196743479159776 0  0.7265881057911006 0.3055240343720796 0  1.99375 0.08395950269330846 0  1.459960956013612 0.3075 0  1.569025960719943 0.2986889805672169 0  0.75625 0.08213100772579164 0  1.03125 0.3278689922742084 0  0.923871252904788 0.3078247185783941 0  1.959375 0.3126371951219512 0  1.749222215368287 0.1025 0  1.275777784631713 0.1025 0  2.2 0.1025 0  1.225938124459196 0.3075 0  1.550777784631713 0.1025 0  1.000777784631713 0.1025 0  1.44375 0.07430640243902442 0  1.16875 0.07430640243902437 0  1.899250267340833 0.2229966846119207 0  0.1020898364287272 0.3140258291809757 0  1.766482954545455 0.2934032012195123 0  0.3405058858996321 0.2119987970531874 0  0.7710785630958338 0.1710968191298857 0  1.046078563095834 0.2389031808701144 0  0.2 0.3400647632937836 0  1.421109702350723 0.2261157654379721 0  0.2800464974185557 0.08982544815605742 0  0.098916018031319 0.09171660955420841 0  2.13125 0 0  2.118919042110979 0.3422084711244843 0  1.30625 0.41 0  0.89375 0 0  1.597888256393107 0.2173787389261347 0  0.20625 0 0  1.829299675393195 0.07400700849299596 0  1.71875 0.41 0  1.16875 0.41 0  2.038220665644273 0.332420740103091 0  0.34375 0 0  0.417496017710808 0.2696595573092803 0  0.2 0.07687845740457822 0  0.9295982307099278 0.1343158415898188 0  0.07390688010811153 0.1697064032433452 0  0.5238366813727013 0.2578302467013575 0  0.05452951551825875 0.25625 0  0.5229630068078351 0.1548816096928243 0  1.452769549894695 0.1548122580621249 0  1.369219062229598 0.07430640243902442 0  1.30625 0 0  0.8504409521244898 0.3356935975609756 0  0.8821881244591965 0.205 0  1.720943423819132 0.1714577452753128 0  1.157188124459196 0.205 0  1.094219062229598 0.07430640243902437 0  1.03125 0 0  1.304056576180868 0.1714577452753128 0  1.67579304192913 0.07430640243902437 0  0.2751941921308361 0.3346083473122598 0  1.209670467133757 0.1362100266964769 0  1.025335513626278 0.1700681449722324 0  0.7562500000000001 0.41 0  1.58125 0 0  0.7567170593862014 0.2409196493502535 0  0.6926714215682891 0.1272249611432207 0  0.4139715849905988 0.3397932387114203 0  0.9840787304190477 0.2717749043358119 0  0.06875000000000001 0.41 0  0 0.35875 0  0.9281250000000001 0.06276726142697993 0  0.5507396469029935 0.3219409231578227 0  0.5504468037989405 0.09136885600634273 0  1.58125 0.41 0  1.631724228912893 0.3381867502687533 0  1.825608881788174 0.14499488549201 0  1.85625 0 0  1.44375 0 0  1.44375 0.41 0  1.85625 0.41 0  2.13125 0.41 0  0.7562500000000001 0 0  0.89375 0.41 0  0.4812500000000001 0 0  0.34375 0.41 0  0.4812500000000001 0.41 0  0.20625 0.41 0  0.06875000000000001 0 0  1.16875 0 0  0.61875 0 0  0.61875 0.41 0  1.03125 0.41 0  1.71875 0 0  1.99375 0 0  1.99375 0.41 0  1.340625 0.3489494290853124 0  1.134375 0.3489494290853123 0  1.700180620188976 0.3438659752031281 0  2.135782184673599 0.07126652247502523 0  1.668441847249787 0.2129203728327609 0  1.295782514339747 0.2378437748815763 0  0.8233075729931248 0.06842334294821524 0  1.409375 0.3520314716057996 0  0.403505597322782 0.182067236678212 0  0.378125 0.05794951541303489 0  0.3043468223249023 0.1518321115979534 0  2.129248544730567 0.1906135162504124 0  2.060771381434487 0.1989445750470348 0  2.013252586573865 0.1496169464686054 0  1.942766402200229 0.1734448904596831 0  1.895522487186454 0.06076163953489683 0  2.069553871656643 0.06605731020975725 0  1.274680914880868 0.3520219391081363 0  1.614713220494657 0.09473434380863296 0  0.7899021319497519 0.3149123934144827 0  0.69518737419149 0.0634051089053758 0  0.2971740475496061 0.2592172353407536 0  1.72990325744076 0.2380068107952482 0  1.356580098625191 0.2120393231351682 0  2.034370752044885 0.2668681600792073 0  1.51768709249349 0.3426260931494756 0  1.561883724969884 0.1650446847858835 0  1.197344062229598 0.2523725417393646 0  1.804085235518364 0.3468178408964637 0  1.817887819205233 0.2589243285818559 0  1.905897727272727 0.3485060975609756 0  0.6719798073392919 0.2688965171178177 0  0 0.05125 0  0.653125 0.35875 0  0.6396896119294488 0.1627615407790282 0  0.4274150154087412 0.1242548552168279 0  1.192836486056382 0.3562350748565544 0  0.8279124365364005 0.183856489168822 0  1.097485222388854 0.2083571153401724 0  1.28257088594801 0.2944411014911587 0  1.474860187679412 0.2504218616229368 0  1.406767003493824 0.2829282258560709 0  0.446875 0.04619219810344041 0  0.515625 0.04585361801037557 0  0.592043440706648 0.05125 0  1.845656689180403 0.1998310418452388 0  2.144958525570388 0.2909790873294231 0  0.6171090763650112 0.2492366900333857 0  2.2 0.15375 0  0.5145586920831158 0.3648371739579888 0  1.57794966442982 0.3540357145964566 0  0.721875 0.3633107922168974 0  0.0496154796471391 0.333125 0  0.5843750000000001 0.3662560860076676 0  0.5810878747760798 0.1474002776121195 0  1.508991196088596 0.1421783375065625 0  0.8840670607017558 0.2640994375393898 0  0.09776612425612034 0.2204896805326566 0  1.50436820029908 0.06143401634903343 0  1.223857000523521 0.0823554862453532 0  1.153316824384777 0.1289850171317837 0  2.148922302309752 0.1258841779285271 0  0.309375 0.04312325590431198 0  1.621993280276081 0.2841214267927899 0  1.550118654119087 0.2461998729100966 0  1.327182649291491 0.1216967252533594 0  1.051977450479407 0.1221382572915816 0  1.753125 0.04556020050186112 0  1.271875 0.04556020050186116 0  0.9816084133102366 0.05126138213476004 0  1.039051841454368 0.0572224914831029 0  0.9719230514536006 0.3480477870845102 0  1.94956388244759 0.1180512551534177 0  1.949997712993411 0.04965831614304109 0  1.771961817615021 0.1530278789497521 0  1.909246823951428 0.2812757146784527 0  0.2459536687882397 0.04668633953831142 0  1.948575539857022 0.2445328248721197 0  1.697271520964565 0.1233917627620729 0  0.7964897648514618 0.1211426571931604 0  1.065625 0.3689344961371042 0  1.085849084308977 0.3170853572226867 0  0.4702981435440001 0.260434880697798 0  1.577403511714593 0.05463601888079143 0  0.05622663515370135 0.05493816910862376 0  0.3267207591099919 0.3566194660323104 0  0.9003051618565143 0.3564049499960621 0  1.751571320346033 0.3651102912045228 0  0.1583785085108421 0.2994699345738728 0  0.1455283439499995 0.3542795598723423 0  2.2 0.35875 0  0.2347662494194072 0.298325008655211 0  0.1527284455616188 0.1065771775690181 0  0.1382139529076665 0.05427454456341477 0  0.8749341636311069 0.05110114999892954 0  0.643661668713109 0.05693499781019222 0  1.466879772203159 0.3611261772912453 0  1.990280163552011 0.3564754268533217 0  1.17471064520912 0.2990917256188288 0  0.5202693090594349 0.206382495511728 0  0 0.25625 0  2.2 0.25625 0  2.2 0.05125 0  0 0.15375 0  1.853978576207987 0.35875 0  0.9787513713939683 0.1487523696999336 0  0.240625 0.3722153812029779 0  1.515638456102889 0.2882700110184686 0  0.09048297387599738 0.3637717362208066 0  2.150453692751374 0.2387066338105111 0  1.323782677156475 0.04897634338873398 0  0.8074131292871642 0.3624701995505916 0  1.409375 0.03715320121951221 0  1.406484531114799 0.1087852750766809 0  1.134375 0.03715320121951218 0  1.627401732573545 0.04552157221025036 0  0.1170173172005315 0.1427610859166811 0  2.045405893604797 0.1105340662939892 0  1.255408269734577 0.1577307500159216 0  2.028125 0.03707597992059326 0  0.4743610090857199 0.1421513964721819 0  0.9354010469015898 0.250631300585664 0  0.04420832937638274 0.128125 0  0.8922386349349938 0.0992956419364831 0  0.1197849154434487 0.2663398672460083 0  1.248258025468107 0.2565907092181813 0  0.3746885856929528 0.370723531618974 0  1.203125 0.0366132337404304 0  0.5724622277005015 0.2751253816079333 0  0.3365425205162783 0.08395777655057959 0  2.072662025974815 0.2975086504196739 0  0.4581080832182547 0.3648371739579888 0  0.3874522734668214 0.2295447548840689 0  0.7827853612484443 0.04106550386289586 0  1.887722846421017 0.1760882698830035 0  1.472640588990488 0.1118278026240017 0  1.865937103925594 0.2604137786483804 0  1.463913572748262 0.2030442564990043 0  1.376426316059077 0.3186741374914345 0  0.6641993820150034 0.3141688596240831 0  0.2943117490824315 0.2130987422685822 0  0.3478153998082709 0.1666571081082676 0  0.3427990510599805 0.2575950027870776 0  0.7997118993855807 0.2216171933356366 0  
[...]
<PointData  Vectors="f_31"> 
<DataArray  type="Float64"  Name="f_31"  NumberOfComponents="3" format="ascii">1.9040099278158503e-06 3.5786248708537306e-06 0.0000000000000000e+00  2.3104998517255639e-06 -1.0250613158738838e-05 0.0000000000000000e+00  -8.5827095035662435e-07 -6.7007226062635896e-07 0.0000000000000000e+00  -1.7442742015991714e-05 1.6032236492132093e-06 0.0000000000000000e+00  9.4596162367268163e-05 -4.6881995219429112e-05 0.0000000000000000e+00  1.1526947308603092e-04 -5.4356428825538278e-07 0.0000000000000000e+00  1.0726398659069778e-04 2.6767958710107981e-05 0.0000000000000000e+00  1.3237512973913559e-05 -2.8783839286432791e-05 0.0000000000000000e+00  -1.5373508881311869e-05 5.9668027453081839e-06 0.0000000000000000e+00  1.2156735062372065e-04 -5.9454283036622192e-05 0.0000000000000000e+00  -8.4823195303021433e-05 1.7929423648930180e-05 0.0000000000000000e+00  1.2689579836467043e-04 7.3128476841043100e-05 0.0000000000000000e+00  2.8985799445483840e-05 1.2233329100495646e-05 0.0000000000000000e+00  8.2152554362136866e-07 7.2316694135158664e-06 0.0000000000000000e+00  -2.6183630741680724e-06 -3.3520144297786616e-07 0.0000000000000000e+00  1.6311571312013933e-06 1.0165444945922793e-06 0.0000000000000000e+00  1.5000032537221364e+00 4.2019927571757617e-07 0.0000000000000000e+00  -1.2068867905808034e-05 3.6752708146666641e-07 0.0000000000000000e+00  1.5597042912872501e-06 -3.0448725682938459e-07 0.0000000000000000e+00  1.0872303899202095e-05 3.9776240960312496e-06 0.0000000000000000e+00  3.3890071159334571e-06 -1.5057610192955198e-06 0.0000000000000000e+00  -1.6829098073148524e-06 -4.8665656346124853e-07 0.0000000000000000e+00  -3.0766576384898573e-06 7.7810496497137592e-07 0.0000000000000000e+00  1.4388729133993415e-06 4.7099442639945340e-07 0.0000000000000000e+00  -8.2968209493661211e-06 8.9638462105422574e-08 0.0000000000000000e+00  -4.6166275625516325e-06 -6.9807895835539580e-07 0.0000000000000000e+00  -4.3520196448627171e-06 -1.4600357587407503e-06 0.0000000000000000e+00  -5.8300208858563210e-06 -4.7534873777915311e-07 0.0000000000000000e+00  -9.8300150791768013e-06 -6.1710995860880409e-07 0.0000000000000000e+00  1.0556918386432919e+00 -9.3952545870647211e-06 0.0000000000000000e+00  1.0556681243816417e+00 -2.1404648386418277e-05 0.0000000000000000e+00  1.0549436219726047e+00 -7.0654284412388657e-04 0.0000000000000000e+00  1.0555824843103143e+00 -8.5749000914172108e-05 0.0000000000000000e+00  1.0556010408172556e+00 2.1885192802621865e-05 0.0000000000000000e+00  1.0568102857423192e+00 5.4833603223338564e-05 0.0000000000000000e+00  1.0322648749167664e+00 -5.5698429344545721e-03 0.0000000000000000e+00  1.0556874539644443e+00 5.2090620546493562e-05 0.0000000000000000e+00  -1.7766153780488058e-06 -2.5717043976313891e-07 0.0000000000000000e+00  -4.7505847180816274e-06 -7.7858613853499803e-07 0.0000000000000000e+00  1.0565808610800600e+00 -1.5576140003664377e-03 0.0000000000000000e+00  -3.0191675646274290e-06 -1.3257069199723048e-06 0.0000000000000000e+00  -3.3718320609317298e-06 -4.0175279537217377e-07 0.0000000000000000e+00  -9.2326435923403193e-06 -1.1975564284610312e-07 0.0000000000000000e+00  1.0556317526118815e+00 3.1139894872263003e-05 0.0000000000000000e+00  -2.7033546661930116e-06 2.0748231291832636e-07 0.0000000000000000e+00  -5.5754535833101700e-06 -3.5058180106378643e-07 0.0000000000000000e+00  2.4738505433787440e-07 -5.4945726168723676e-07 0.0000000000000000e+00  1.0556555406888901e+00 -2.4799991031954061e-04 0.0000000000000000e+00  -2.5407609930661064e-06 4.6598872685351232e-07 0.0000000000000000e+00  3.4377240842671218e-07 -1.6242748657050217e-07 0.0000000000000000e+00  -8.3741067758013742e-07 -9.8343100562093646e-07 0.0000000000000000e+00  -1.1378744219404532e-05 5.8035516937411947e-08 0.0000000000000000e+00  -5.1191919621445128e-05 5.2203905540425730e-06 0.0000000000000000e+00  -4.9649493182621822e-05 -3.5766781112931275e-06 0.0000000000000000e+00  -1.0816004382296595e-06 2.0876642002128998e-07 0.0000000000000000e+00  1.0554941067972858e+00 -3.6461506743848728e-05 0.0000000000000000e+00  -3.9659205328475326e-06 4.3120389112247633e-07 0.0000000000000000e+00  1.0556989010882429e+00 -2.9547559765472158e-05 0.0000000000000000e+00  1.0555078725771023e+00 -2.3897103681443949e-05 0.0000000000000000e+00  1.0557158294790019e+00 -3.9230709431600097e-05 0.0000000000000000e+00  1.0555903151732184e+00 -8.0760029402857799e-05 0.0000000000000000e+00  1.0556753277509776e+00 1.7085158077480712e-04 0.0000000000000000e+00  1.1318377083895370e+00 -1.5680590122460611e-01 0.0000000000000000e+00  1.0555503217974107e+00 -1.1776313166195921e-05 0.0000000000000000e+00  1.0557633522163850e+00 3.9791251845916199e-04 0.0000000000000000e+00  1.0556566582482305e+00 2.9337684443774075e-05 0.0000000000000000e+00  1.0566746218080616e+00 -2.4227623749038247e-03 0.0000000000000000e+00  1.0547553306000057e+00 8.8108361769853323e-04 0.0000000000000000e+00  1.0453243948314301e+00 1.3098677747627441e-01 0.0000000000000000e+00  1.1249973891187111e+00 5.2913563344353132e-06 0.0000000000000000e+00  1.1249880014272493e+00 -3.9265980291146579e-06 0.0000000000000000e+00  1.0557207509132784e+00 -1.0403365107185490e-04 0.0000000000000000e+00  1.0585541651384427e+00 1.5154453216951040e-02 0.0000000000000000e+00  1.0519393254569196e+00 -1.7748668071731744e-03 0.0000000000000000e+00  1.0652094947499060e+00 -1.8639922132125668e-02 0.0000000000000000e+00  1.0559987808959423e+00 -7.1757839944570348e-04 0.0000000000000000e+00  1.0557167628458075e+00 3.3343954812848611e-04 0.0000000000000000e+00  1.0553532777623378e+00 -5.6445970267758326e-07 0.0000000000000000e+00  1.0554183588005968e+00 4.7168788917345507e-05 0.0000000000000000e+00  1.0551365865907627e+00 -1.1025240256534864e-04 0.0000000000000000e+00  1.0546982275179735e+00 2.9482592752056152e-05 0.0000000000000000e+00  1.0558336494984739e+00 -9.3794570853072851e-05 0.0000000000000000e+00  1.0556941658912256e+00 -2.1322534459406400e-04 0.0000000000000000e+00  1.0555077933663854e+00 -2.4019259759995004e-04 0.0000000000000000e+00  1.0558908008236720e+00 1.7108841444894409e-04 0.0000000000000000e+00  1.0567136893109081e+00 1.6205512081090675e-03 0.0000000000000000e+00  1.0558961789600396e+00 -1.7220735583293266e-04 0.0000000000000000e+00  1.0555481926702126e+00 -1.8968810431016175e-04 0.0000000000000000e+00  1.0556117594095493e+00 -8.2353453213087897e-05 0.0000000000000000e+00  1.0554615692316596e+00 3.2964170340131016e-04 0.0000000000000000e+00  1.0552950231353144e+00 -1.2727224145357352e-05 0.0000000000000000e+00  1.0555731634947125e+00 -5.2073397449709668e-06 0.0000000000000000e+00  1.1569664879663351e+00 3.5303094801731622e-01 0.0000000000000000e+00  1.0555079977117439e+00 4.5706630217811516e-05 0.0000000000000000e+00  8.0055864445607405e-01 -7.9270846186725030e-02 0.0000000000000000e+00  1.0553625467860746e+00 -2.2803069905403934e-04 0.0000000000000000e+00  1.0556145669424997e+00 -3.2540918319978752e-05 0.0000000000000000e+00  1.3310871597311240e+00 1.4806195022619700e-01 0.0000000000000000e+00  1.0556272228664898e+00 7.6237951312134884e-05 0.0000000000000000e+00  1.3337808293136910e+00 1.8156131688881744e-01 0.0000000000000000e+00  1.1285891874172802e+00 -3.3709971586780851e-01 0.0000000000000000e+00  -8.4527842304211316e-07 1.0960515631088563e-07 0.0000000000000000e+00  1.0541514365366518e+00 -1.1729766308757263e-04 0.0000000000000000e+00  -5.0005039686457726e-06 -2.8182042673399421e-07 0.0000000000000000e+00  -9.6804753096665734e-06 -8.9134351009759936e-08 0.0000000000000000e+00  1.0556756065829429e+00 -4.1027509931069943e-05 0.0000000000000000e+00  1.1657618224050031e-05 -7.5838497192872199e-07 0.0000000000000000e+00  1.0552998434672525e+00 7.4327055790224554e-05 0.0000000000000000e+00  -7.3671116004669276e-06 -3.3282195577131877e-07 0.0000000000000000e+00  -2.6177701129851541e-06 -5.3532580428928366e-07 0.0000000000000000e+00  1.0552483790177734e+00 7.3702227651536046e-04 0.0000000000000000e+00  -2.2063910423494943e-06 -1.2968738826915767e-06 0.0000000000000000e+00  1.0392540996065118e+00 -5.5928550989856836e-02 0.0000000000000000e+00  1.4072632945911447e+00 -1.5132016755563885e-01 0.0000000000000000e+00  1.0555406185171028e+00 -1.3272616945647121e-04 0.0000000000000000e+00  1.3446911395561028e+00 -1.1556102708763329e-01 0.0000000000000000e+00  1.0512141879646395e+00 -9.5114780162670245e-03 0.0000000000000000e+00  1.3758392881856880e+00 1.1604954150816024e-01 0.0000000000000000e+00  1.0483687184300226e+00 4.4466265277454693e-03 0.0000000000000000e+00  1.0555532911153369e+00 4.1478418192062920e-05 0.0000000000000000e+00  1.0548366663633160e+00 -9.4271854689926128e-04 0.0000000000000000e+00  -2.5302673969816096e-06 6.0085941537239750e-07 0.0000000000000000e+00  1.0553620709117733e+00 9.6055462498508717e-05 0.0000000000000000e+00  1.0556674154818473e+00 -1.0722757285287510e-04 0.0000000000000000e+00  1.0555717373720814e+00 2.4841870018917337e-05 0.0000000000000000e+00  1.0554917582094652e+00 2.2437156646211365e-05 0.0000000000000000e+00  1.0554654303739666e+00 -1.0283756880686827e-04 0.0000000000000000e+00  -4.4446334093480875e-06 -8.6393554045847062e-07 0.0000000000000000e+00  1.0556933888610389e+00 8.3831518831679948e-05 0.0000000000000000e+00  1.0553490478339931e+00 4.3477610779981114e-05 0.0000000000000000e+00  1.3250630577131486e+00 -9.4527980588331409e-02 0.0000000000000000e+00  1.0555740731753256e+00 1.1912849790600672e-04 0.0000000000000000e+00  1.0555662948923712e+00 -5.9875862273034338e-05 0.0000000000000000e+00  -3.4611764262517359e-06 -9.1285688818101261e-08 0.0000000000000000e+00  -1.7707677661191795e-05 8.7857493402297414e-07 0.0000000000000000e+00  1.0556298084555102e+00 -5.2002407625227176e-04 0.0000000000000000e+00  1.0551423804907016e+00 -6.8260153384730563e-05 0.0000000000000000e+00  1.0971831175068019e+00 -3.8920304347362586e-02 0.0000000000000000e+00  1.0556725087729839e+00 -3.1063026938541157e-05 0.0000000000000000e+00  3.6507086120566537e-05 1.6145587471418011e-05 0.0000000000000000e+00  6.5624796794455365e-01 1.2746291157821104e-05 0.0000000000000000e+00  1.0547492166077468e+00 -1.1756328092535259e-04 0.0000000000000000e+00  1.0596003631020461e+00 -6.5104227351787166e-03 0.0000000000000000e+00  1.0557679957534165e+00 4.0343781413569625e-03 0.0000000000000000e+00  -1.0963099163467941e-05 5.3845838124815209e-07 0.0000000000000000e+00  1.0545146350132808e+00 -2.9755908686792511e-05 0.0000000000000000e+00  1.0555258659079403e+00 -5.9063065450579317e-05 0.0000000000000000e+00  -4.0813258745500368e-06 -3.5574251316746862e-07 0.0000000000000000e+00  -1.2039091415224577e-05 7.1687002367072353e-07 0.0000000000000000e+00  -1.1507465478457520e-05 9.7845358561180955e-08 0.0000000000000000e+00  -2.6606289243110456e-07 -7.4966944794244011e-07 0.0000000000000000e+00  -5.7861118147378430e-06 5.8004968100168143e-08 0.0000000000000000e+00  -1.1754984810674534e-07 -1.7531311910870743e-07 0.0000000000000000e+00  -2.2618976488503764e-06 -3.4282485947819165e-07 0.0000000000000000e+00  3.2550716349556715e-07 5.0852028723371821e-08 0.0000000000000000e+00  2.9811405720269572e-06 -1.6747492782726435e-06 0.0000000000000000e+00  -1.2089949661970195e-05 1.3859063880138942e-07 0.0000000000000000e+00  8.2145109922093611e-07 -1.5700244714085754e-06 0.0000000000000000e+00  1.6495120184211105e-05 3.9437016234294361e-06 0.0000000000000000e+00  5.4604863926462271e-07 -4.4383674924470511e-07 0.0000000000000000e+00  -1.0428145836224086e-05 1.6216306521862748e-07 0.0000000000000000e+00  -8.6330150170147823e-06 -2.4575739063707286e-07 0.0000000000000000e+00  -3.4719127745243529e-06 -1.1289916397676354e-06 0.0000000000000000e+00  -1.2405066584960812e-05 2.1482710767918052e-07 0.0000000000000000e+00  -2.8696233221924003e-06 3.9769686092703220e-07 0.0000000000000000e+00  8.8842649276611187e-07 -2.5747651871718794e-08 0.0000000000000000e+00  1.0529107689277113e+00 1.0806092842896213e-03 0.0000000000000000e+00  1.0537211620655744e+00 1.0920847667388882e-03 0.0000000000000000e+00  1.0556650925969171e+00 4.1996499075717768e-04 0.0000000000000000e+00  1.0549654104228532e+00 1.1677042579816335e-03 0.0000000000000000e+00  1.0556168126553671e+00 2.7800800689052372e-06 0.0000000000000000e+00  1.0556838557592467e+00 6.2506383986523338e-05 0.0000000000000000e+00  1.0546767463486089e+00 -1.9368769302353030e-04 0.0000000000000000e+00  1.0532943119910585e+00 9.0251422355718046e-04 0.0000000000000000e+00  9.8381430807697878e-01 2.1645191235408673e-02 0.0000000000000000e+00  1.1219383960798812e+00 4.9900221414183349e-02 0.0000000000000000e+00  9.9050655262359621e-01 5.0213432684916948e-01 0.0000000000000000e+00  1.0560743320163029e+00 2.2460581540265328e-04 0.0000000000000000e+00  1.0558244717263996e+00 1.3445092242247812e-04 0.0000000000000000e+00  1.0557134887532560e+00 1.4602986617298438e-04 0.0000000000000000e+00  1.0555939981589522e+00 5.2210088282413894e-05 0.0000000000000000e+00  1.0539349169713415e+00 -4.9884267057701199e-04 0.0000000000000000e+00  1.0542697428326315e+00 -3.0651936862439777e-04 0.0000000000000000e+00  1.0554434800328751e+00 7.3014635308690822e-04 0.0000000000000000e+00  1.0553529927331544e+00 8.4938225238599574e-06 0.0000000000000000e+00  1.0558708734677733e+00 -1.9840902798607605e-04 0.0000000000000000e+00  1.0549304617906980e+00 -4.2576742241330395e-04 0.0000000000000000e+00  1.1317351167835048e+00 -5.0407092308756185e-01 0.0000000000000000e+00  1.0556638491026475e+00 -1.5922840906136903e-05 0.0000000000000000e+00  1.0556459700697478e+00 5.4707681921359308e-05 0.0000000000000000e+00  1.0557142874584153e+00 9.7162716455503475e-05 0.0000000000000000e+00  1.0552376164418900e+00 -2.3648388369053810e-04 0.0000000000000000e+00  1.0556568476269839e+00 -4.6256193997541209e-05 0.0000000000000000e+00  1.0556676685177087e+00 -4.9260671410540276e-05 0.0000000000000000e+00  1.0546651852576716e+00 -6.0864307305316613e-04 0.0000000000000000e+00  1.0556151361979766e+00 -1.0510071839468362e-05 0.0000000000000000e+00  1.0544177489327333e+00 7.0206321881954642e-04 0.0000000000000000e+00  1.0555832470157869e+00 -1.3434856388368809e-03 0.0000000000000000e+00  6.5624304487096830e-01 -1.3062029527706509e-05 0.0000000000000000e+00  1.0532511837350471e+00 5.1447913363461702e-04 0.0000000000000000e+00  1.0543140829420943e+00 -1.1061118205125413e-04 0.0000000000000000e+00  1.0437794974071513e+00 4.1816896667338010e-02 0.0000000000000000e+00  1.0550794044684089e+00 -5.3261797091429545e-04 0.0000000000000000e+00  1.0554781259372148e+00 -1.4432666730987596e-04 0.0000000000000000e+00  1.0554925355083151e+00 -3.9666058403683131e-05 0.0000000000000000e+00  1.0559065521204751e+00 1.0151501417369284e-04 0.0000000000000000e+00  1.0555758784894795e+00 3.1249654695540597e-05 0.0000000000000000e+00  1.0554934193256427e+00 8.2925195303841347e-05 0.0000000000000000e+00  1.0716473280496526e+00 1.0401426914953537e-02 0.0000000000000000e+00  1.0590200491119404e+00 2.3744393869241753e-03 0.0000000000000000e+00  1.0517081168679168e+00 2.0586456218332991e-04 0.0000000000000000e+00  1.0555833360860933e+00 -1.9052920016118925e-05 0.0000000000000000e+00  1.0557645276430176e+00 -6.7729984290769831e-04 0.0000000000000000e+00  1.0545937372420633e+00 -2.4087216430617505e-03 0.0000000000000000e+00  1.0566942599618385e+00 6.9681557729513882e-04 0.0000000000000000e+00  1.0638694957255617e+00 -6.1318100965833200e-03 0.0000000000000000e+00  1.0539065260372464e+00 1.3113931295048900e-03 0.0000000000000000e+00  1.0490544858300341e+00 -2.0754275373449798e-04 0.0000000000000000e+00  9.5945511147662155e-01 5.4252231813025756e-02 0.0000000000000000e+00  1.0549313251617352e+00 3.2546194904148573e-04 0.0000000000000000e+00  1.0529931351915180e+00 1.3193850480708524e-03 0.0000000000000000e+00  1.0556482383833967e+00 -6.6531897108576279e-06 0.0000000000000000e+00  1.0556036277608851e+00 -1.2338719193771394e-04 0.0000000000000000e+00  1.2286892776731180e+00 1.5360747302839545e-01 0.0000000000000000e+00  1.0561797858744044e+00 -1.9924680950681223e-04 0.0000000000000000e+00  1.0553763395068900e+00 3.2177280928843933e-04 0.0000000000000000e+00  1.0555794561992768e+00 4.2762214457323924e-05 0.0000000000000000e+00  1.0560649779266278e+00 7.7736267114342358e-04 0.0000000000000000e+00  1.2445749337042138e+00 6.2537291371627265e-02 0.0000000000000000e+00  1.0555361046830054e+00 -1.2793886991648869e-04 0.0000000000000000e+00  1.0555122437560587e+00 -2.9977792726141553e-05 0.0000000000000000e+00  1.0557846256321080e+00 3.4030173794730124e-05 0.0000000000000000e+00  1.0554938838270518e+00 -7.2646042927257217e-05 0.0000000000000000e+00  1.0485505773213464e+00 1.1988803368367042e-03 0.0000000000000000e+00  1.0508880206230782e+00 -2.4718868889788456e-04 0.0000000000000000e+00  1.0551900758254580e+00 -4.3451703403360279e-05 0.0000000000000000e+00  1.0551682981964716e+00 -5.0848922209923678e-04 0.0000000000000000e+00  1.0548714737707539e+00 7.9267156857637121e-04 0.0000000000000000e+00  1.0556034866744974e+00 1.0464690311351260e-04 0.0000000000000000e+00  1.0465520176295249e+00 -1.5842341950202425e-03 0.0000000000000000e+00  1.0556067402141687e+00 -2.8643465965288130e-05 0.0000000000000000e+00  1.0556567366630496e+00 -4.1230848016548160e-05 0.0000000000000000e+00  1.3319275519456160e+00 2.5018505018377796e-02 0.0000000000000000e+00  1.0556868178377128e+00 -3.7788990312419828e-05 0.0000000000000000e+00  1.0557717855419806e+00 -4.3012132326913046e-05 0.0000000000000000e+00  1.0554189431604071e+00 -2.1041306825720668e-05 0.0000000000000000e+00  1.0509923077212968e+00 -2.9312751258159294e-03 0.0000000000000000e+00  1.0557714764567623e+00 5.1805011321195374e-05 0.0000000000000000e+00  1.0450259597654779e+00 -2.1993386180276717e-02 0.0000000000000000e+00  1.0522134639190117e+00 -1.7856724217279343e-03 0.0000000000000000e+00  7.5014911724611610e-01 -4.7691003443106714e-02 0.0000000000000000e+00  1.2117331325890794e+00 -6.9765172849185070e-02 0.0000000000000000e+00  1.0512128607091502e+00 -6.4408272947430863e-05 0.0000000000000000e+00  1.0457338289384783e+00 9.4351683724700234e-04 0.0000000000000000e+00  1.3565794217783032e+00 5.1676616134908504e-01 0.0000000000000000e+00  1.0434756939282981e+00 2.7695796971601921e-01 0.0000000000000000e+00  1.0521092692521725e+00 -2.8330022391048161e-03 0.0000000000000000e+00  1.5624935897700782e+00 -5.3036514926557782e-02 0.0000000000000000e+00  1.3247941042178721e+00 -5.8306007929385772e-01 0.0000000000000000e+00  1.0138481797492342e+00 -2.9946814742517230e-01 0.0000000000000000e+00  1.0498118938034231e+00 -2.1456508709423359e-03 0.0000000000000000e+00  1.0517196901111863e+00 6.0680792818288979e-07 0.0000000000000000e+00  1.0490674812797047e+00 1.0816999546441007e-04 0.0000000000000000e+00  1.0562949750346313e+00 -4.1672001223693860e-04 0.0000000000000000e+00  1.0555199875658963e+00 -2.6120685451622296e-04 0.0000000000000000e+00  1.0459964790008438e+00 -3.1407225690207948e-03 0.0000000000000000e+00  1.4062433295518706e+00 1.3286838181224264e-06 0.0000000000000000e+00  1.0568149100331399e+00 -4.5590862619367220e-04 0.0000000000000000e+00  1.0511006050266172e+00 2.6737847895049920e-03 0.0000000000000000e+00  1.4062421596683927e+00 -8.2360212943297639e-07 0.0000000000000000e+00  1.0554876898853225e+00 3.0871226001382042e-04 0.0000000000000000e+00  1.0554771887997576e+00 -7.0153044697584993e-05 0.0000000000000000e+00  1.2931153286449604e+00 -4.9853684345952847e-03 0.0000000000000000e+00  1.0555670186713273e+00 -1.2661122026788266e-05 0.0000000000000000e+00  6.0996696431123743e-01 3.2581723110814598e-01 0.0000000000000000e+00  1.0561907197124547e+00 -1.7503178065536826e-04 0.0000000000000000e+00  1.0524744406055973e+00 -6.3888923395863376e-05 0.0000000000000000e+00  1.0499142650085691e+00 3.8444541717926978e-04 0.0000000000000000e+00  1.0446197890087519e+00 7.8130025139755530e-04 0.0000000000000000e+00  1.0554594556130705e+00 -9.1136871830937579e-05 0.0000000000000000e+00  1.0477820330652856e+00 -1.1831434402461603e-03 0.0000000000000000e+00  1.050141587222