<?xml version="1.0"?>
<VTKFile type="UnstructuredGrid"  version="0.1"  >
<UnstructuredGrid>
<Piece  NumberOfPoints="2446" NumberOfCells="4585">
<Points>
<DataArray  type="Float64"  NumberOfComponents="3"  format="ascii">0 0.41 0  0 0 0  2.2 0 0  2.2 0.41 0  0.2404508497187474 0.2293892626146237 0  0.25 0.2 0  0.2404508497187474 0.1706107373853764 0  0.2154508497187474 0.1524471741852423 0  0.1845491502812526 0.1524471741852423 0  0.1595491502812526 0.1706107373853764 0  0.15 0.2 0  0.1595491502812526 0.2293892626146237 0  0.1845491502812527 0.2475528258147577 0  0.2154508497187474 0.2475528258147577 0  1.1 0 0  1.1 0.41 0  0 0.205 0  0.55 0 0  0.55 0.41 0  0.275 0 0  0.275 0.41 0  1.65 0.41 0  1.65 0 0  0.8250000000000001 0.41 0  0.8250000000000001 0 0  1.375 0 0  1.375 0.41 0  1.925 0 0  1.925 0.41 0  1.5125 0.205 0  1.7875 0.205 0  0.6875 0.205 0  0.9625000000000001 0.205 0  1.2375 0.205 0  2.2 0.205 0  0.4687002074688797 0.2068568464730291 0  1.99375 0.2152743902439024 0  2.0625 0 0  2.0625 0.41 0  2.2 0.3075 0  0.4125 0 0  0.4125 0.41 0  1.7875 0.41 0  1.375 0.1486128048780488 0  1.5125 0 0  1.7875 0 0  1.5125 0.41 0  0.8250000000000001 0.2613871951219511 0  0.9625000000000001 0.41 0  0.9625000000000001 0 0  0.6875 0.41 0  0.6875 0 0  0.1375 0 0  0.1375 0.41 0  1.2375 0 0  1.1 0.1486128048780487 0  1.2375 0.41 0  1.65 0.1486128048780487 0  1.126715909090909 0.2793064024390244 0  1.676715909090909 0.2793064024390244 0  0.8517159090909092 0.1306935975609756 0  1.348284090909091 0.2793064024390244 0  0.34375 0.3032389320646208 0  1.894702181800738 0.1282910975492754 0  2.092797818199262 0.1282910975492754 0  1.85625 0.3075 0  0.61875 0.3075 0  0.61875 0.1025 0  0.3648540804333487 0.1240075933101478 0  0 0.3075 0  0 0.1025 0  2.099172119769978 0.25625 0  0.48125 0.09238439620688085 0  0.5781001037344399 0.2059284232365146 0  0.48125 0.3196743479159776 0  0.7265881057911006 0.3055240343720796 0  1.99375 0.08395950269330846 0  1.459960956013612 0.3075 0  1.569025960719943 0.2986889805672169 0  0.75625 0.08213100772579164 0  1.03125 0.3278689922742084 0  0.923871252904788 0.3078247185783941 0  1.959375 0.3126371951219512 0  1.749222215368287 0.1025 0  1.275777784631713 0.1025 0  2.2 0.1025 0  1.225938124459196 0.3075 0  1.550777784631713 0.1025 0  1.000777784631713 0.1025 0  1.44375 0.07430640243902442 0  1.16875 0.07430640243902437 0  1.899250267340833 0.2229966846119207 0  0.1020898364287272 0.3140258291809757 0  1.766482954545455 0.2934032012195123 0  0.3405058858996321 0.2119987970531874 0  0.7710785630958338 0.1710968191298857 0  1.046078563095834 0.2389031808701144 0  0.2 0.3400647632937836 0  1.421109702350723 0.2261157654379721 0  0.2800464974185557 0.08982544815605742 0  0.098916018031319 0.09171660955420841 0  2.13125 0 0  2.118919042110979 0.3422084711244843 0  1.30625 0.41 0  0.89375 0 0  1.597888256393107 0.2173787389261347 0  0.20625 0 0  1.829299675393195 0.07400700849299596 0  1.71875 0.41 0  1.16875 0.41 0  2.038220665644273 0.332420740103091 0  0.34375 0 0  0.417496017710808 0.2696595573092803 0  0.2 0.07687845740457822 0  0.9295982307099278 0.1343158415898188 0  0.07390688010811153 0.1697064032433452 0  0.5238366813727013 0.2578302467013575 0  0.05452951551825875 0.25625 0  0.5229630068078351 0.1548816096928243 0  1.452769549894695 0.1548122580621249 0  1.369219062229598 0.07430640243902442 0  1.30625 0 0  0.8504409521244898 0.3356935975609756 0  0.8821881244591965 0.205 0  1.720943423819132 0.1714577452753128 0  1.157188124459196 0.205 0  1.094219062229598 0.07430640243902437 0  1.03125 0 0  1.304056576180868 0.1714577452753128 0  1.67579304192913 0.07430640243902437 0  0.2751941921308361 0.3346083473122598 0  1.209670467133757 0.1362100266964769 0  1.025335513626278 0.1700681449722324 0  0.7562500000000001 0.41 0  1.58125 0 0  0.7567170593862014 0.2409196493502535 0  0.6926714215682891 0.1272249611432207 0  0.4139715849905988 0.3397932387114203 0  0.9840787304190477 0.2717749043358119 0  0.06875000000000001 0.41 0  0 0.35875 0  0.9281250000000001 0.06276726142697993 0  0.5507396469029935 0.3219409231578227 0  0.5504468037989405 0.09136885600634273 0  1.58125 0.41 0  1.631724228912893 0.3381867502687533 0  1.825608881788174 0.14499488549201 0  1.85625 0 0  1.44375 0 0  1.44375 0.41 0  1.85625 0.41 0  2.13125 0.41 0  0.7562500000000001 0 0  0.89375 0.41 0  0.4812500000000001 0 0  0.34375 0.41 0  0.4812500000000001 0.41 0  0.20625 0.41 0  0.06875000000000001 0 0  1.16875 0 0  0.61875 0 0  0.61875 0.41 0  1.03125 0.41 0  1.71875 0 0  1.99375 0 0  1.99375 0.41 0  1.340625 0.3489494290853124 0  1.134375 0.3489494290853123 0  1.700180620188976 0.3438659752031281 0  2.135782184673599 0.07126652247502523 0  1.668441847249787 0.2129203728327609 0  1.295782514339747 0.2378437748815763 0  0.8233075729931248 0.06842334294821524 0  1.409375 0.3520314716057996 0  0.403505597322782 0.182067236678212 0  0.378125 0.05794951541303489 0  0.3043468223249023 0.1518321115979534 0  2.129248544730567 0.1906135162504124 0  2.060771381434487 0.1989445750470348 0  2.013252586573865 0.1496169464686054 0  1.942766402200229 0.1734448904596831 0  1.895522487186454 0.06076163953489683 0  2.069553871656643 0.06605731020975725 0  1.274680914880868 0.3520219391081363 0  1.614713220494657 0.09473434380863296 0  0.7899021319497519 0.3149123934144827 0  0.69518737419149 0.0634051089053758 0  0.2971740475496061 0.2592172353407536 0  1.72990325744076 0.2380068107952482 0  1.356580098625191 0.2120393231351682 0  2.034370752044885 0.2668681600792073 0  1.51768709249349 0.3426260931494756 0  1.561883724969884 0.1650446847858835 0  1.197344062229598 0.2523725417393646 0  1.804085235518364 0.3468178408964637 0  1.817887819205233 0.2589243285818559 0  1.905897727272727 0.3485060975609756 0  0.6719798073392919 0.2688965171178177 0  0 0.05125 0  0.653125 0.35875 0  0.6396896119294488 0.1627615407790282 0  0.4274150154087412 0.1242548552168279 0  1.192836486056382 0.3562350748565544 0  0.8279124365364005 0.183856489168822 0  1.097485222388854 0.2083571153401724 0  1.28257088594801 0.2944411014911587 0  1.474860187679412 0.2504218616229368 0  1.406767003493824 0.2829282258560709 0  0.446875 0.04619219810344041 0  0.515625 0.04585361801037557 0  0.592043440706648 0.05125 0  1.845656689180403 0.1998310418452388 0  2.144958525570388 0.2909790873294231 0  0.6171090763650112 0.2492366900333857 0  2.2 0.15375 0  0.5145586920831158 0.3648371739579888 0  1.57794966442982 0.3540357145964566 0  0.721875 0.3633107922168974 0  0.0496154796471391 0.333125 0  0.5843750000000001 0.3662560860076676 0  0.5810878747760798 0.1474002776121195 0  1.508991196088596 0.1421783375065625 0  0.8840670607017558 0.2640994375393898 0  0.09776612425612034 0.2204896805326566 0  1.50436820029908 0.06143401634903343 0  1.223857000523521 0.0823554862453532 0  1.153316824384777 0.1289850171317837 0  2.148922302309752 0.1258841779285271 0  0.309375 0.04312325590431198 0  1.621993280276081 0.2841214267927899 0  1.550118654119087 0.2461998729100966 0  1.327182649291491 0.1216967252533594 0  1.051977450479407 0.1221382572915816 0  1.753125 0.04556020050186112 0  1.271875 0.04556020050186116 0  0.9816084133102366 0.05126138213476004 0  1.039051841454368 0.0572224914831029 0  0.9719230514536006 0.3480477870845102 0  1.94956388244759 0.1180512551534177 0  1.949997712993411 0.04965831614304109 0  1.771961817615021 0.1530278789497521 0  1.909246823951428 0.2812757146784527 0  0.2459536687882397 0.04668633953831142 0  1.948575539857022 0.2445328248721197 0  1.697271520964565 0.1233917627620729 0  0.7964897648514618 0.1211426571931604 0  1.065625 0.3689344961371042 0  1.085849084308977 0.3170853572226867 0  0.4702981435440001 0.260434880697798 0  1.577403511714593 0.05463601888079143 0  0.05622663515370135 0.05493816910862376 0  0.3267207591099919 0.3566194660323104 0  0.9003051618565143 0.3564049499960621 0  1.751571320346033 0.3651102912045228 0  0.1583785085108421 0.2994699345738728 0  0.1455283439499995 0.3542795598723423 0  2.2 0.35875 0  0.2347662494194072 0.298325008655211 0  0.1527284455616188 0.1065771775690181 0  0.1382139529076665 0.05427454456341477 0  0.8749341636311069 0.05110114999892954 0  0.643661668713109 0.05693499781019222 0  1.466879772203159 0.3611261772912453 0  1.990280163552011 0.3564754268533217 0  1.17471064520912 0.2990917256188288 0  0.5202693090594349 0.206382495511728 0  0 0.25625 0  2.2 0.25625 0  2.2 0.05125 0  0 0.15375 0  1.853978576207987 0.35875 0  0.9787513713939683 0.1487523696999336 0  0.240625 0.3722153812029779 0  1.515638456102889 0.2882700110184686 0  0.09048297387599738 0.3637717362208066 0  2.150453692751374 0.2387066338105111 0  1.323782677156475 0.04897634338873398 0  0.8074131292871642 0.3624701995505916 0  1.409375 0.03715320121951221 0  1.406484531114799 0.1087852750766809 0  1.134375 0.03715320121951218 0  1.627401732573545 0.04552157221025036 0  0.1170173172005315 0.1427610859166811 0  2.045405893604797 0.1105340662939892 0  1.255408269734577 0.1577307500159216 0  2.028125 0.03707597992059326 0  0.4743610090857199 0.1421513964721819 0  0.9354010469015898 0.250631300585664 0  0.04420832937638274 0.128125 0  0.8922386349349938 0.0992956419364831 0  0.1197849154434487 0.2663398672460083 0  1.248258025468107 0.2565907092181813 0  0.3746885856929528 0.370723531618974 0  1.203125 0.0366132337404304 0  0.5724622277005015 0.2751253816079333 0  0.3365425205162783 0.08395777655057959 0  2.072662025974815 0.2975086504196739 0  0.4581080832182547 0.3648371739579888 0  0.3874522734668214 0.2295447548840689 0  0.7827853612484443 0.04106550386289586 0  1.887722846421017 0.1760882698830035 0  1.472640588990488 0.1118278026240017 0  1.865937103925594 0.2604137786483804 0  1.463913572748262 0.2030442564990043 0  1.376426316059077 0.3186741374914345 0  0.6641993820150034 0.3141688596240831 0  0.2943117490824315 0.2130987422685822 0  0.3478153998082709 0.1666571081082676 0  0.3427990510599805 0.2575950027870776 0  0.7997118993855807 0.2216171933356366 0  
[...]
<PointData  Vectors="f_31"> 
<DataArray  type="Float64"  Name="f_31"  NumberOfComponents="3" format="ascii">2.2150795410364482e-06 3.2894461759038673e-08 0.0000000000000000e+00  -2.2908281485776292e-06 -3.7567034491820058e-08 0.0000000000000000e+00  3.7806591378481989e-06 -2.0413781933644660e-09 0.0000000000000000e+00  -1.6261460340265363e-05 -8.1469278914778182e-09 0.0000000000000000e+00  -3.7066286235261391e-06 -4.2146467514212804e-06 0.0000000000000000e+00  -6.1961145325527541e-07 -1.6372959695605240e-05 0.0000000000000000e+00  2.0263767018416126e-06 -1.0319408272068927e-05 0.0000000000000000e+00  -5.5399211963872401e-06 4.5785061144140325e-06 0.0000000000000000e+00  -1.7683127701206218e-07 4.1126894113416832e-06 0.0000000000000000e+00  7.6649965886402792e-06 -2.5788572428812858e-06 0.0000000000000000e+00  9.5459341745023050e-08 -1.5648100917281757e-06 0.0000000000000000e+00  -1.5474224739418130e-05 -4.1451552436956572e-06 0.0000000000000000e+00  3.8640502149638964e-06 7.1909779127343214e-06 0.0000000000000000e+00  -1.3249778195459740e-05 4.2247337380593369e-07 0.0000000000000000e+00  -2.5108556454099816e-06 5.5885184266048995e-09 0.0000000000000000e+00  7.1575176779454998e-08 -7.4038257240073915e-09 0.0000000000000000e+00  1.5000043572416302e+00 -1.6142376023841112e-06 0.0000000000000000e+00  1.2525104459934561e-05 -1.4384266723235249e-06 0.0000000000000000e+00  7.6009996521653550e-06 6.7985001385236469e-07 0.0000000000000000e+00  2.1801145578282939e-06 3.0592930919458191e-07 0.0000000000000000e+00  -2.4136896434333489e-06 -1.2828930730462181e-08 0.0000000000000000e+00  4.0904139030101288e-07 -3.4262210720286888e-09 0.0000000000000000e+00  4.1165055021434528e-07 -1.2977769188724322e-08 0.0000000000000000e+00  8.3967845142063365e-07 8.0979125069379916e-08 0.0000000000000000e+00  -5.2845611558095289e-06 -2.3218447353829429e-08 0.0000000000000000e+00  -3.7540569371315689e-06 8.5030085717744298e-10 0.0000000000000000e+00  -7.0049217879998080e-07 1.0251381815143230e-08 0.0000000000000000e+00  -2.8770313154833279e-06 1.8016528247308561e-08 0.0000000000000000e+00  -2.1692373249251986e-06 -1.1538338697665191e-08 0.0000000000000000e+00  1.1395006843128683e+00 4.3461879989596419e-05 0.0000000000000000e+00  1.1395969965621959e+00 2.8658364855988838e-05 0.0000000000000000e+00  1.1798199379014327e+00 -4.2842633454586339e-02 0.0000000000000000e+00  1.1403869435081819e+00 -2.4087088166003705e-03 0.0000000000000000e+00  1.1391725863092141e+00 -1.2371509180569276e-04 0.0000000000000000e+00  1.1394735980472088e+00 -4.6057065152646078e-05 0.0000000000000000e+00  -1.9978045317451834e-01 -1.7725144426789405e-01 0.0000000000000000e+00  1.1394756415610872e+00 -5.3224748262922493e-05 0.0000000000000000e+00  3.3870595730820495e-07 7.0074081003010273e-09 0.0000000000000000e+00  -8.5120055942729849e-07 -7.7915881883571804e-09 0.0000000000000000e+00  1.1374662306342618e+00 -4.1360556955183298e-05 0.0000000000000000e+00  -3.2976244418534963e-06 2.2744602336261175e-07 0.0000000000000000e+00  3.6668226119959923e-06 -4.2662185538328204e-07 0.0000000000000000e+00  -5.8838762374587554e-06 -9.5484125672087901e-09 0.0000000000000000e+00  1.1393515778586050e+00 1.1959405421017760e-05 0.0000000000000000e+00  1.3637552384873836e-07 -5.5617830786058692e-09 0.0000000000000000e+00  -4.0715449607183046e-06 7.7528520791481573e-09 0.0000000000000000e+00  1.0929640676064694e-06 5.5037184435854241e-10 0.0000000000000000e+00  1.1552639989755862e+00 3.1379614949530229e-03 0.0000000000000000e+00  -1.5794240658048677e-06 -9.3710772082202031e-09 0.0000000000000000e+00  2.4141797721426721e-06 7.0156424801425169e-09 0.0000000000000000e+00  -6.2095872150808354e-06 -1.2361369428551593e-06 0.0000000000000000e+00  -1.6647450979743578e-05 1.3381507765595744e-06 0.0000000000000000e+00  -3.5745740985376943e-06 6.0406997303602864e-07 0.0000000000000000e+00  -5.7542171950796886e-06 -5.5641504573914522e-07 0.0000000000000000e+00  3.2737440307487013e-07 6.3436666445872271e-09 0.0000000000000000e+00  1.1390470961294579e+00 -5.3969531232397937e-04 0.0000000000000000e+00  -1.5099558451692047e-06 6.2803488654754377e-10 0.0000000000000000e+00  1.1396474550145732e+00 3.9905643518681740e-05 0.0000000000000000e+00  1.1395645663580951e+00 -2.5639469707544626e-04 0.0000000000000000e+00  1.1392866338480718e+00 1.0837197773910414e-04 0.0000000000000000e+00  1.1368594448894334e+00 -1.3934905331138383e-02 0.0000000000000000e+00  1.1393240782424179e+00 -1.6285994342250699e-05 0.0000000000000000e+00  2.0223530751417180e+00 -1.2851164622208971e-01 0.0000000000000000e+00  1.1393559010271996e+00 -8.6625886160643107e-05 0.0000000000000000e+00  1.1394819733929240e+00 -1.5114330747616469e-04 0.0000000000000000e+00  1.1372160424418283e+00 1.1349741748612123e-05 0.0000000000000000e+00  1.2629200787326220e+00 1.1112706755376175e-02 0.0000000000000000e+00  1.2131025544867018e+00 -1.0087220524947239e-02 0.0000000000000000e+00  1.5575519988886264e+00 1.4530818577840948e-01 0.0000000000000000e+00  1.1249989904560251e+00 -7.2341983041102599e-07 0.0000000000000000e+00  1.1249901984120296e+00 -3.8976975886826113e-07 0.0000000000000000e+00  1.1393842162656835e+00 -3.3894076543451046e-05 0.0000000000000000e+00  1.5913111949414731e+00 3.6543664971294676e-01 0.0000000000000000e+00  8.2223803525937489e-01 6.6675790134245100e-02 0.0000000000000000e+00  1.4610851455292202e+00 -2.6002728431242295e-01 0.0000000000000000e+00  1.1507866876563178e+00 1.1393583544466275e-01 0.0000000000000000e+00  1.1294970973322709e+00 1.8263310996372766e-05 0.0000000000000000e+00  1.1378854012494262e+00 -8.9730974271216935e-05 0.0000000000000000e+00  1.1385349703016430e+00 8.5969359916086331e-05 0.0000000000000000e+00  1.0888232647445686e+00 -5.9848239997638622e-02 0.0000000000000000e+00  1.1277123677996472e+00 -1.9366776249203751e-05 0.0000000000000000e+00  1.1393371064529183e+00 8.0732882466012052e-04 0.0000000000000000e+00  1.1366570567266434e+00 -1.8624961154755081e-06 0.0000000000000000e+00  1.1371135019689265e+00 -2.8600402857965581e-04 0.0000000000000000e+00  1.1378491747435575e+00 -1.0898690688847931e-04 0.0000000000000000e+00  1.1373565622314730e+00 -2.7766499303835527e-04 0.0000000000000000e+00  1.1378595270873220e+00 -1.7260763610918767e-05 0.0000000000000000e+00  1.1377797342634473e+00 1.5673081919415530e-04 0.0000000000000000e+00  1.1363378654677538e+00 -1.3105080352326637e-03 0.0000000000000000e+00  1.1170253495032649e+00 1.8081721249846927e-05 0.0000000000000000e+00  1.1166882586057205e+00 -5.0026549912414284e-06 0.0000000000000000e+00  1.1395032533288041e+00 -6.0745761770823906e-06 0.0000000000000000e+00  1.1913202600930082e+00 2.6128613599900530e-01 0.0000000000000000e+00  1.1387752494606933e+00 8.1566531397162586e-05 0.0000000000000000e+00  -5.3601598877629031e-01 4.9273078718545034e-02 0.0000000000000000e+00  1.1575574650568410e+00 -2.9377284491205625e-02 0.0000000000000000e+00  1.1398833583494010e+00 -7.8893977508562958e-04 0.0000000000000000e+00  1.4101010643288650e+00 2.3080406647956847e-01 0.0000000000000000e+00  1.1392555565031546e+00 -2.5218592885920634e-05 0.0000000000000000e+00  1.8723765143747659e+00 -1.1353987769718266e-01 0.0000000000000000e+00  1.1370165713711906e+00 -2.4342805551384847e-01 0.0000000000000000e+00  -5.6011637374581837e-07 9.7522518168560825e-09 0.0000000000000000e+00  1.1012218364403810e+00 2.2280705826463638e-04 0.0000000000000000e+00  -1.7675606106778498e-06 4.4579831716146022e-09 0.0000000000000000e+00  -6.5372178556849777e-06 4.5822363912333912e-08 0.0000000000000000e+00  1.1395861098916724e+00 3.0865884494435711e-05 0.0000000000000000e+00  1.6975374506190578e-06 -4.7354404614490881e-07 0.0000000000000000e+00  1.1160408981089529e+00 -2.6311014084359002e-06 0.0000000000000000e+00  -2.5125057979799856e-06 -4.7000642262104780e-10 0.0000000000000000e+00  -2.0147373806069864e-06 -4.6162067108125347e-10 0.0000000000000000e+00  1.1222929793365670e+00 -5.9923987741067096e-06 0.0000000000000000e+00  -3.2516084975965350e-06 5.4616596273916620e-08 0.0000000000000000e+00  1.6996400941517307e+00 -4.6106775969657032e-01 0.0000000000000000e+00  1.5144217738466987e+00 -2.8017967063212401e-01 0.0000000000000000e+00  1.1376317944011283e+00 -4.6375531713877208e-03 0.0000000000000000e+00  1.3345770207360095e+00 -9.6018226701650597e-02 0.0000000000000000e+00  1.4634605821411550e+00 -2.6384068709553316e-01 0.0000000000000000e+00  1.3745669399741727e+00 1.3396340754684027e-01 0.0000000000000000e+00  1.3706063926722412e+00 4.1908185279417887e-01 0.0000000000000000e+00  1.1393334814206144e+00 6.1934994346476285e-05 0.0000000000000000e+00  1.1160871086500013e+00 -1.0085098530591604e-04 0.0000000000000000e+00  -6.1748747179767336e-07 3.0656218048241448e-09 0.0000000000000000e+00  1.1135994205951105e+00 6.7211459792920645e-03 0.0000000000000000e+00  1.1442234012948396e+00 -5.6910035055274446e-03 0.0000000000000000e+00  1.1395073916482681e+00 5.6386245655077530e-05 0.0000000000000000e+00  1.1391691525207415e+00 -2.8510608727044437e-04 0.0000000000000000e+00  1.1164942346286351e+00 -1.9018484856807527e-04 0.0000000000000000e+00  -2.8863064889007827e-06 8.7099020046034918e-09 0.0000000000000000e+00  1.1392952036579738e+00 -3.3809336982276523e-05 0.0000000000000000e+00  1.1163171749006331e+00 -8.6437481122229770e-05 0.0000000000000000e+00  1.6738623290140051e+00 7.4438774298339075e-02 0.0000000000000000e+00  1.1392792477163516e+00 -1.1066215851407982e-04 0.0000000000000000e+00  1.1391205708081404e+00 -1.3813937430752004e-03 0.0000000000000000e+00  -7.7907522265544001e-06 3.5767924368699514e-08 0.0000000000000000e+00  -1.3116285207531562e-05 -6.9371233680550937e-09 0.0000000000000000e+00  1.1966073066737291e+00 -5.8792056130886790e-04 0.0000000000000000e+00  1.2249523600801056e+00 -1.2763542680083567e-01 0.0000000000000000e+00  1.5011265978406072e+00 -2.2743777823455841e-01 0.0000000000000000e+00  1.1407506626203723e+00 -7.0999430566485338e-04 0.0000000000000000e+00  -3.1827027972878115e-06 -3.3010424264211763e-07 0.0000000000000000e+00  6.5625067979452578e-01 -2.4111408089231146e-07 0.0000000000000000e+00  1.0798446406064464e+00 -1.4776670856265664e-03 0.0000000000000000e+00  1.2675125629902737e+00 -9.7607278662471014e-02 0.0000000000000000e+00  1.3215161737185990e+00 1.8626606173945556e-01 0.0000000000000000e+00  -4.7041027656801490e-06 1.0730103462686103e-08 0.0000000000000000e+00  1.1119849769489507e+00 2.4763301049671800e-04 0.0000000000000000e+00  1.1395071964638097e+00 9.1421190942552874e-06 0.0000000000000000e+00  -3.4641409094920614e-06 4.4039665228320123e-09 0.0000000000000000e+00  -1.0279491932981330e-05 6.1402646801943074e-09 0.0000000000000000e+00  -4.1547855486155644e-06 -2.4922956148580822e-08 0.0000000000000000e+00  1.6886459112009776e-06 1.6474416336714691e-08 0.0000000000000000e+00  -2.2716686884911543e-06 -4.8870357988201427e-11 0.0000000000000000e+00  -7.5758273211858609e-06 -1.3382982384496690e-07 0.0000000000000000e+00  1.1183921429135918e-06 -7.0714632255311874e-10 0.0000000000000000e+00  3.7074140901390213e-06 -1.0323393203829480e-06 0.0000000000000000e+00  8.7735650156050483e-06 -4.4920763339091960e-07 0.0000000000000000e+00  6.7032669520305426e-07 6.7952707957975984e-07 0.0000000000000000e+00  -3.6844562927061005e-06 -3.0225346144069865e-07 0.0000000000000000e+00  1.0843764176419549e-06 1.0785112284286025e-07 0.0000000000000000e+00  -1.7192675280326300e-07 -1.8302206000820732e-09 0.0000000000000000e+00  -5.9794751954763637e-08 1.0658770496510265e-06 0.0000000000000000e+00  -2.8030793183524437e-06 -8.5027958812520185e-08 0.0000000000000000e+00  -9.0024040108583471e-07 -8.4217947776885235e-09 0.0000000000000000e+00  -7.3878819244365075e-06 -3.8083892216408680e-09 0.0000000000000000e+00  -2.1239421187735806e-06 -6.2309622282308521e-09 0.0000000000000000e+00  -6.3293451839173577e-07 1.5790061567223886e-08 0.0000000000000000e+00  1.0760112189708311e+00 1.5229177262908225e-04 0.0000000000000000e+00  1.0768374921811599e+00 -4.2603452908178699e-05 0.0000000000000000e+00  1.0960064067157957e+00 1.4867556532235823e-04 0.0000000000000000e+00  1.1099159822787164e+00 -2.8785491530463269e-04 0.0000000000000000e+00  1.1395835962230147e+00 7.6745812528684538e-05 0.0000000000000000e+00  1.1392510395393443e+00 -5.6896697994473254e-05 0.0000000000000000e+00  1.0827127298362318e+00 -1.4770628788830984e-02 0.0000000000000000e+00  1.0616289586484788e+00 -4.9400106983831151e-05 0.0000000000000000e+00  -5.1728549630262455e-01 -3.1382929674509626e-02 0.0000000000000000e+00  1.5686363959702487e+00 1.5160717539856053e-01 0.0000000000000000e+00  2.7027745553633870e-01 -1.1852661304695876e-01 0.0000000000000000e+00  1.1394352266317718e+00 -5.2242551673598756e-05 0.0000000000000000e+00  1.1395529993329148e+00 -5.5838503447323580e-05 0.0000000000000000e+00  1.1395967500120812e+00 -6.9676744953243164e-05 0.0000000000000000e+00  1.1395106362065424e+00 -4.7914676109071516e-05 0.0000000000000000e+00  1.0744823128391732e+00 -8.8777099554259971e-05 0.0000000000000000e+00  1.0956852173618226e+00 -2.0396612475179755e-04 0.0000000000000000e+00  1.0622303236089305e+00 8.1655629045337592e-05 0.0000000000000000e+00  1.1356547037451743e+00 2.3931941699909673e-05 0.0000000000000000e+00  1.1400708712912493e+00 2.9213738644392338e-02 0.0000000000000000e+00  9.4077591832839225e-01 -1.1591406575265591e-01 0.0000000000000000e+00  7.2263412846891606e-01 8.8802779239588903e-02 0.0000000000000000e+00  1.1394709703894954e+00 4.3284435543448794e-05 0.0000000000000000e+00  1.1391821599912983e+00 -4.1138896178844328e-05 0.0000000000000000e+00  1.1394189315427705e+00 -1.5716524300481784e-05 0.0000000000000000e+00  1.1001287207943977e+00 1.0434930363871861e-04 0.0000000000000000e+00  1.1395455768288767e+00 8.3628442086574874e-05 0.0000000000000000e+00  1.1393915826689354e+00 -1.3356065391125518e-04 0.0000000000000000e+00  1.0861994316353007e+00 -4.9122741463556231e-05 0.0000000000000000e+00  1.1393569042980818e+00 1.2075914874727718e-05 0.0000000000000000e+00  1.0789363197531476e+00 1.2484665993760325e-04 0.0000000000000000e+00  1.3756852598156981e+00 1.7387277226841701e-02 0.0000000000000000e+00  6.5624823743676208e-01 -2.8844697264909743e-07 0.0000000000000000e+00  8.2209496698368512e-01 7.9937705213905974e-02 0.0000000000000000e+00  1.3189229870786088e+00 3.4208017786956216e-02 0.0000000000000000e+00  1.7509951912980068e+00 4.0581603770663505e-01 0.0000000000000000e+00  1.0368865524102837e+00 5.1102280657879776e-05 0.0000000000000000e+00  1.1480533194111031e+00 -1.4758250482464617e-02 0.0000000000000000e+00  1.1392632002213361e+00 -5.8121778631117446e-04 0.0000000000000000e+00  1.1391169066123124e+00 -1.4686595979336093e-05 0.0000000000000000e+00  1.1392993022937976e+00 -2.9164592895766195e-05 0.0000000000000000e+00  1.1392914687132767e+00 -6.6229807557488944e-05 0.0000000000000000e+00  1.1610139253331768e+00 1.8107357493692849e-01 0.0000000000000000e+00  8.0934455988287024e-01 1.0396736172778789e-01 0.0000000000000000e+00  7.4129460765949795e-01 -3.8206914795199075e-02 0.0000000000000000e+00  1.1395551795242751e+00 -7.5401537343051368e-07 0.0000000000000000e+00  1.1390310638150638e+00 -1.9584138446154566e-05 0.0000000000000000e+00  1.4392283563636290e+00 -6.2884864844029803e-02 0.0000000000000000e+00  1.1393063329233422e+00 -3.0527279480738561e-05 0.0000000000000000e+00  7.9059189034697075e-01 -6.5808784012916260e-02 0.0000000000000000e+00  1.0512111031064693e+00 8.5977939828137915e-05 0.0000000000000000e+00  8.9882495038083310e-01 5.0679525613177762e-02 0.0000000000000000e+00  9.4271717639776065e-01 9.6487110548518260e-02 0.0000000000000000e+00  6.8315256544753145e-01 2.5993572598581517e-02 0.0000000000000000e+00  1.4367210793522696e+00 2.1152375644110877e-01 0.0000000000000000e+00  1.1394599433180090e+00 1.2546439273643402e-04 0.0000000000000000e+00  1.1451186791187518e+00 3.8337880841559159e-05 0.0000000000000000e+00  1.2251831705977070e+00 1.8344266010784299e-01 0.0000000000000000e+00  1.0790367431389529e+00 3.8968146899270407e-05 0.0000000000000000e+00  1.1276338202256528e+00 -1.3649611665737376e-04 0.0000000000000000e+00  1.1391926166100197e+00 -2.1536997035754939e-04 0.0000000000000000e+00  1.1393716874098925e+00 -2.0814857613067527e-04 0.0000000000000000e+00  1.4090344568327509e+00 1.7043050857729159e-02 0.0000000000000000e+00  1.1392536097135426e+00 5.9645095939105756e-05 0.0000000000000000e+00  1.1393195619201344e+00 2.4926531696475390e-06 0.0000000000000000e+00  1.1392041390793100e+00 -2.8922168489561481e-05 0.0000000000000000e+00  1.1384928123660443e+00 -8.6095401982792580e-04 0.0000000000000000e+00  9.6966997041970171e-01 -1.8251542735190951e-04 0.0000000000000000e+00  9.6940710372393590e-01 -3.2391644657703815e-04 0.0000000000000000e+00  1.0192809514124028e+00 -5.8363844506903809e-04 0.0000000000000000e+00  1.0566495629288037e+00 -2.2761044580165893e-04 0.0000000000000000e+00  1.0810233527353130e+00 2.1756689308975179e-04 0.0000000000000000e+00  1.1390633334096967e+00 -7.0188165690902350e-05 0.0000000000000000e+00  1.0049548669393964e+00 -8.3513270483542992e-05 0.0000000000000000e+00  1.1395835269074093e+00 1.7554298505723962e-05 0.0000000000000000e+00  1.1392684953986356e+00 -1.3623072961056593e-05 0.0000000000000000e+00  1.3382492489578615e+00 -9.4520755861845315e-02 0.0000000000000000e+00  1.1394939984563985e+00 -3.3329707022750911e-05 0.0000000000000000e+00  1.1393893395363277e+00 -3.7065701606982735e-05 0.0000000000000000e+00  1.1356644006230285e+00 -3.2857550185233383e-02 0.0000000000000000e+00  9.1946015300209061e-01 -1.9503470064816711e-04 0.0000000000000000e+00  1.1356644825387709e+00 -2.4816435296778189e-04 0.0000000000000000e+00  1.4919533023312883e+00 -4.6177358481380137e-01 0.0000000000000000e+00  1.0415286582833114e+00 2.1662835318823375e-04 0.0000000000000000e+00  7.3703583397324457e-01 -7.6485475668656419e-02 0.0000000000000000e+00  1.4559346157065971e+00 -5.7643163940855224e-02 0.0000000000000000e+00  1.0345014168518389e+00 1.0462755882931607e-03 0.0000000000000000e+00  9.6242791767731706e-01 5.9793934253821788e-05 0.0000000000000000e+00  1.5424780214487377e+00 4.7982313775266622e-01 0.0000000000000000e+00  1.0124505284510961e+00 1.8281394205862805e-01 0.0000000000000000e+00  1.0185449689135448e+00 1.3035362564287742e-04 0.0000000000000000e+00  1.9258203018490736e+00 2.5204112174348331e-01 0.0000000000000000e+00  1.4495626139546394e+00 -5.0545386849238005e-01 0.0000000000000000e+00  9.7133936139797872e-01 -1.8929920273280629e-01 0.0000000000000000e+00  1.0106117449263388e+00 -3.0108666727619196e-03 0.0000000000000000e+00  8.1414355261040783e-01 -1.0213991609606295e-01 0.0000000000000000e+00  9.9989540944428723e-01 7.7774846193174875e-05 0.0000000000000000e+00  1.0356646957157869e+00 2.1407841692998411e-05 0.0000000000000000e+00  1.1389300740472696e+00 -1.0604004595308083e-04 0.0000000000000000e+00  3.2383532896180484e-01 -1.6309953578644586e-02 0.0000000000000000e+00  1.4062434473032861e+00 -1.5132764715768702e-06 0.0000000000000000e+00  1.1395029277801128e+00 2.8725698984925601e-05 0.0000000000000000e+00  1.0194790815919639e+00 -6.9199088394880062e-04 0.0000000000000000e+00  1.4062431482561573e+00 -1.2866115562676705e-06 0.0000000000000000e+00  1.0192863773353820e+00 -4.8626906875813585e-05 0.0000000000000000e+00  1.1385810357562940e+00 -2.4312196453337132e-03 0.0000000000000000e+00  1.1520786020388529e+00 5.9946457848241125e-02 0.0000000000000000e+00  1.1392755205475278e+00 -1.9571093114636704e-05 0.0000000000000000e+00  7.1783270449426084e-01 1.0106421959455321e-01 0.0000000000000000e+00  1.1393789536194046e+00 -8.0504699815099364e-06 0.0000000000000000e+00  1.0010950479691130e+00 -2.2338629584432208e-04 0.0000000000000000e+00  9.7402412428913354e-01 1.1064168906918463e-02 0.0000000000000000e+00  8.6830614183622634e-01 8.5696065392833971e-05 0.0000000000000000e+00  1.1386378901063732e+00 3.6645681218577687e-05 0.0000000000000000e+00  8.6897090068583327e-01 4.5895796252245237e-05 0.0000000000000000e+00  9.6789