<?xml version="1.0"?>
<VTKFile type="UnstructuredGrid"  version="0.1"  >
<UnstructuredGrid>
<Piece  NumberOfPoints="2446" NumberOfCells="4585">
<Points>
<DataArray  type="Float64"  NumberOfComponents="3"  format="ascii">0 0.41 0  0 0 0  2.2 0 0  2.2 0.41 0  0.2404508497187474 0.2293892626146237 0  0.25 0.2 0  0.2404508497187474 0.1706107373853764 0  0.2154508497187474 0.1524471741852423 0  0.1845491502812526 0.1524471741852423 0  0.1595491502812526 0.1706107373853764 0  0.15 0.2 0  0.1595491502812526 0.2293892626146237 0  0.1845491502812527 0.2475528258147577 0  0.2154508497187474 0.2475528258147577 0  1.1 0 0  1.1 0.41 0  0 0.205 0  0.55 0 0  0.55 0.41 0  0.275 0 0  0.275 0.41 0  1.65 0.41 0  1.65 0 0  0.8250000000000001 0.41 0  0.8250000000000001 0 0  1.375 0 0  1.375 0.41 0  1.925 0 0  1.925 0.41 0  1.5125 0.205 0  1.7875 0.205 0  0.6875 0.205 0  0.9625000000000001 0.205 0  1.2375 0.205 0  2.2 0.205 0  0.4687002074688797 0.2068568464730291 0  1.99375 0.2152743902439024 0  2.0625 0 0  2.0625 0.41 0  2.2 0.3075 0  0.4125 0 0  0.4125 0.41 0  1.7875 0.41 0  1.375 0.1486128048780488 0  1.5125 0 0  1.7875 0 0  1.5125 0.41 0  0.8250000000000001 0.2613871951219511 0  0.9625000000000001 0.41 0  0.9625000000000001 0 0  0.6875 0.41 0  0.6875 0 0  0.1375 0 0  0.1375 0.41 0  1.2375 0 0  1.1 0.1486128048780487 0  1.2375 0.41 0  1.65 0.1486128048780487 0  1.126715909090909 0.2793064024390244 0  1.676715909090909 0.2793064024390244 0  0.8517159090909092 0.1306935975609756 0  1.348284090909091 0.2793064024390244 0  0.34375 0.3032389320646208 0  1.894702181800738 0.1282910975492754 0  2.092797818199262 0.1282910975492754 0  1.85625 0.3075 0  0.61875 0.3075 0  0.61875 0.1025 0  0.3648540804333487 0.1240075933101478 0  0 0.3075 0  0 0.1025 0  2.099172119769978 0.25625 0  0.48125 0.09238439620688085 0  0.5781001037344399 0.2059284232365146 0  0.48125 0.3196743479159776 0  0.7265881057911006 0.3055240343720796 0  1.99375 0.08395950269330846 0  1.459960956013612 0.3075 0  1.569025960719943 0.2986889805672169 0  0.75625 0.08213100772579164 0  1.03125 0.3278689922742084 0  0.923871252904788 0.3078247185783941 0  1.959375 0.3126371951219512 0  1.749222215368287 0.1025 0  1.275777784631713 0.1025 0  2.2 0.1025 0  1.225938124459196 0.3075 0  1.550777784631713 0.1025 0  1.000777784631713 0.1025 0  1.44375 0.07430640243902442 0  1.16875 0.07430640243902437 0  1.899250267340833 0.2229966846119207 0  0.1020898364287272 0.3140258291809757 0  1.766482954545455 0.2934032012195123 0  0.3405058858996321 0.2119987970531874 0  0.7710785630958338 0.1710968191298857 0  1.046078563095834 0.2389031808701144 0  0.2 0.3400647632937836 0  1.421109702350723 0.2261157654379721 0  0.2800464974185557 0.08982544815605742 0  0.098916018031319 0.09171660955420841 0  2.13125 0 0  2.118919042110979 0.3422084711244843 0  1.30625 0.41 0  0.89375 0 0  1.597888256393107 0.2173787389261347 0  0.20625 0 0  1.829299675393195 0.07400700849299596 0  1.71875 0.41 0  1.16875 0.41 0  2.038220665644273 0.332420740103091 0  0.34375 0 0  0.417496017710808 0.2696595573092803 0  0.2 0.07687845740457822 0  0.9295982307099278 0.1343158415898188 0  0.07390688010811153 0.1697064032433452 0  0.5238366813727013 0.2578302467013575 0  0.05452951551825875 0.25625 0  0.5229630068078351 0.1548816096928243 0  1.452769549894695 0.1548122580621249 0  1.369219062229598 0.07430640243902442 0  1.30625 0 0  0.8504409521244898 0.3356935975609756 0  0.8821881244591965 0.205 0  1.720943423819132 0.1714577452753128 0  1.157188124459196 0.205 0  1.094219062229598 0.07430640243902437 0  1.03125 0 0  1.304056576180868 0.1714577452753128 0  1.67579304192913 0.07430640243902437 0  0.2751941921308361 0.3346083473122598 0  1.209670467133757 0.1362100266964769 0  1.025335513626278 0.1700681449722324 0  0.7562500000000001 0.41 0  1.58125 0 0  0.7567170593862014 0.2409196493502535 0  0.6926714215682891 0.1272249611432207 0  0.4139715849905988 0.3397932387114203 0  0.9840787304190477 0.2717749043358119 0  0.06875000000000001 0.41 0  0 0.35875 0  0.9281250000000001 0.06276726142697993 0  0.5507396469029935 0.3219409231578227 0  0.5504468037989405 0.09136885600634273 0  1.58125 0.41 0  1.631724228912893 0.3381867502687533 0  1.825608881788174 0.14499488549201 0  1.85625 0 0  1.44375 0 0  1.44375 0.41 0  1.85625 0.41 0  2.13125 0.41 0  0.7562500000000001 0 0  0.89375 0.41 0  0.4812500000000001 0 0  0.34375 0.41 0  0.4812500000000001 0.41 0  0.20625 0.41 0  0.06875000000000001 0 0  1.16875 0 0  0.61875 0 0  0.61875 0.41 0  1.03125 0.41 0  1.71875 0 0  1.99375 0 0  1.99375 0.41 0  1.340625 0.3489494290853124 0  1.134375 0.3489494290853123 0  1.700180620188976 0.3438659752031281 0  2.135782184673599 0.07126652247502523 0  1.668441847249787 0.2129203728327609 0  1.295782514339747 0.2378437748815763 0  0.8233075729931248 0.06842334294821524 0  1.409375 0.3520314716057996 0  0.403505597322782 0.182067236678212 0  0.378125 0.05794951541303489 0  0.3043468223249023 0.1518321115979534 0  2.129248544730567 0.1906135162504124 0  2.060771381434487 0.1989445750470348 0  2.013252586573865 0.1496169464686054 0  1.942766402200229 0.1734448904596831 0  1.895522487186454 0.06076163953489683 0  2.069553871656643 0.06605731020975725 0  1.274680914880868 0.3520219391081363 0  1.614713220494657 0.09473434380863296 0  0.7899021319497519 0.3149123934144827 0  0.69518737419149 0.0634051089053758 0  0.2971740475496061 0.2592172353407536 0  1.72990325744076 0.2380068107952482 0  1.356580098625191 0.2120393231351682 0  2.034370752044885 0.2668681600792073 0  1.51768709249349 0.3426260931494756 0  1.561883724969884 0.1650446847858835 0  1.197344062229598 0.2523725417393646 0  1.804085235518364 0.3468178408964637 0  1.817887819205233 0.2589243285818559 0  1.905897727272727 0.3485060975609756 0  0.6719798073392919 0.2688965171178177 0  0 0.05125 0  0.653125 0.35875 0  0.6396896119294488 0.1627615407790282 0  0.4274150154087412 0.1242548552168279 0  1.192836486056382 0.3562350748565544 0  0.8279124365364005 0.183856489168822 0  1.097485222388854 0.2083571153401724 0  1.28257088594801 0.2944411014911587 0  1.474860187679412 0.2504218616229368 0  1.406767003493824 0.2829282258560709 0  0.446875 0.04619219810344041 0  0.515625 0.04585361801037557 0  0.592043440706648 0.05125 0  1.845656689180403 0.1998310418452388 0  2.144958525570388 0.2909790873294231 0  0.6171090763650112 0.2492366900333857 0  2.2 0.15375 0  0.5145586920831158 0.3648371739579888 0  1.57794966442982 0.3540357145964566 0  0.721875 0.3633107922168974 0  0.0496154796471391 0.333125 0  0.5843750000000001 0.3662560860076676 0  0.5810878747760798 0.1474002776121195 0  1.508991196088596 0.1421783375065625 0  0.8840670607017558 0.2640994375393898 0  0.09776612425612034 0.2204896805326566 0  1.50436820029908 0.06143401634903343 0  1.223857000523521 0.0823554862453532 0  1.153316824384777 0.1289850171317837 0  2.148922302309752 0.1258841779285271 0  0.309375 0.04312325590431198 0  1.621993280276081 0.2841214267927899 0  1.550118654119087 0.2461998729100966 0  1.327182649291491 0.1216967252533594 0  1.051977450479407 0.1221382572915816 0  1.753125 0.04556020050186112 0  1.271875 0.04556020050186116 0  0.9816084133102366 0.05126138213476004 0  1.039051841454368 0.0572224914831029 0  0.9719230514536006 0.3480477870845102 0  1.94956388244759 0.1180512551534177 0  1.949997712993411 0.04965831614304109 0  1.771961817615021 0.1530278789497521 0  1.909246823951428 0.2812757146784527 0  0.2459536687882397 0.04668633953831142 0  1.948575539857022 0.2445328248721197 0  1.697271520964565 0.1233917627620729 0  0.7964897648514618 0.1211426571931604 0  1.065625 0.3689344961371042 0  1.085849084308977 0.3170853572226867 0  0.4702981435440001 0.260434880697798 0  1.577403511714593 0.05463601888079143 0  0.05622663515370135 0.05493816910862376 0  0.3267207591099919 0.3566194660323104 0  0.9003051618565143 0.3564049499960621 0  1.751571320346033 0.3651102912045228 0  0.1583785085108421 0.2994699345738728 0  0.1455283439499995 0.3542795598723423 0  2.2 0.35875 0  0.2347662494194072 0.298325008655211 0  0.1527284455616188 0.1065771775690181 0  0.1382139529076665 0.05427454456341477 0  0.8749341636311069 0.05110114999892954 0  0.643661668713109 0.05693499781019222 0  1.466879772203159 0.3611261772912453 0  1.990280163552011 0.3564754268533217 0  1.17471064520912 0.2990917256188288 0  0.5202693090594349 0.206382495511728 0  0 0.25625 0  2.2 0.25625 0  2.2 0.05125 0  0 0.15375 0  1.853978576207987 0.35875 0  0.9787513713939683 0.1487523696999336 0  0.240625 0.3722153812029779 0  1.515638456102889 0.2882700110184686 0  0.09048297387599738 0.3637717362208066 0  2.150453692751374 0.2387066338105111 0  1.323782677156475 0.04897634338873398 0  0.8074131292871642 0.3624701995505916 0  1.409375 0.03715320121951221 0  1.406484531114799 0.1087852750766809 0  1.134375 0.03715320121951218 0  1.627401732573545 0.04552157221025036 0  0.1170173172005315 0.1427610859166811 0  2.045405893604797 0.1105340662939892 0  1.255408269734577 0.1577307500159216 0  2.028125 0.03707597992059326 0  0.4743610090857199 0.1421513964721819 0  0.9354010469015898 0.250631300585664 0  0.04420832937638274 0.128125 0  0.8922386349349938 0.0992956419364831 0  0.1197849154434487 0.2663398672460083 0  1.248258025468107 0.2565907092181813 0  0.3746885856929528 0.370723531618974 0  1.203125 0.0366132337404304 0  0.5724622277005015 0.2751253816079333 0  0.3365425205162783 0.08395777655057959 0  2.072662025974815 0.2975086504196739 0  0.4581080832182547 0.3648371739579888 0  0.3874522734668214 0.2295447548840689 0  0.7827853612484443 0.04106550386289586 0  1.887722846421017 0.1760882698830035 0  1.472640588990488 0.1118278026240017 0  1.865937103925594 0.2604137786483804 0  1.463913572748262 0.2030442564990043 0  1.376426316059077 0.3186741374914345 0  0.6641993820150034 0.3141688596240831 0  0.2943117490824315 0.2130987422685822 0  0.3478153998082709 0.1666571081082676 0  0.3427990510599805 0.2575950027870776 0  0.7997118993855807 0.2216171933356366 0  
[...]
<PointData  Vectors="f_31"> 
<DataArray  type="Float64"  Name="f_31"  NumberOfComponents="3" format="ascii">2.2401648419901544e-06 3.9354258488586689e-08 0.0000000000000000e+00  -2.3035679972970088e-06 -2.5135875943379045e-08 0.0000000000000000e+00  3.7201409975085515e-06 -1.3821633077700594e-09 0.0000000000000000e+00  -1.6152932035084206e-05 -1.1289114108115318e-08 0.0000000000000000e+00  -3.2950565849469821e-06 -3.1272742391515909e-06 0.0000000000000000e+00  7.7741318588762407e-08 -1.9235865365286171e-05 0.0000000000000000e+00  3.3072523499885623e-06 -1.0245946540545538e-05 0.0000000000000000e+00  -6.8837297762827746e-06 4.7862793489842433e-06 0.0000000000000000e+00  -8.1374260433079125e-07 5.6521478300655931e-06 0.0000000000000000e+00  1.0511654980164650e-05 -2.1864301967961337e-06 0.0000000000000000e+00  -2.4966237497948985e-07 -4.1543868776096004e-06 0.0000000000000000e+00  -1.7570531427212514e-05 -3.3088008854403734e-06 0.0000000000000000e+00  4.3757449553500093e-06 8.5984281483173991e-06 0.0000000000000000e+00  -1.1872887633288985e-05 1.8885431893313776e-07 0.0000000000000000e+00  -2.4326631471647207e-06 8.3335557582070348e-09 0.0000000000000000e+00  1.2202164385686245e-07 -5.3475359737985151e-09 0.0000000000000000e+00  1.5000043761006288e+00 -2.2195909158459675e-06 0.0000000000000000e+00  6.3139078551666351e-06 -3.1944890976944487e-06 0.0000000000000000e+00  8.2371757309732073e-06 5.5997212694012011e-07 0.0000000000000000e+00  3.0987409550561711e-06 3.7060182264091843e-07 0.0000000000000000e+00  -3.2810000306556923e-06 6.3645194216790831e-08 0.0000000000000000e+00  4.5760108458440168e-07 -5.5424341443959212e-10 0.0000000000000000e+00  4.8347396769257630e-07 -1.3371090806027523e-08 0.0000000000000000e+00  -2.1530260942038219e-06 1.3610442857231105e-07 0.0000000000000000e+00  -7.3157003825960969e-06 -4.3123812022131319e-08 0.0000000000000000e+00  -3.7020602820461457e-06 8.7462022262647854e-10 0.0000000000000000e+00  -6.6193777458470386e-07 4.1009389313156354e-09 0.0000000000000000e+00  -2.7843496433272905e-06 1.5359422564380654e-08 0.0000000000000000e+00  -2.0580612059269230e-06 -5.4454381639943045e-09 0.0000000000000000e+00  1.1459968085314169e+00 3.0773351532420189e-05 0.0000000000000000e+00  1.1461142730844300e+00 2.7622045435068821e-05 0.0000000000000000e+00  1.1382598509926178e+00 2.0197894297455717e-02 0.0000000000000000e+00  1.1478524419770049e+00 -4.3026950584325024e-03 0.0000000000000000e+00  1.1456755481047076e+00 -2.2168928535216644e-04 0.0000000000000000e+00  1.1460048857107237e+00 -4.9829225281410517e-05 0.0000000000000000e+00  -1.9027799093837647e-01 -2.5117138401348338e-01 0.0000000000000000e+00  1.1460264551056305e+00 -4.7495522145964600e-05 0.0000000000000000e+00  3.7330201309286349e-07 2.4683203601486538e-09 0.0000000000000000e+00  -7.9963387790531273e-07 2.1422910322411978e-09 0.0000000000000000e+00  1.1430845404971348e+00 -2.6130937910442313e-06 0.0000000000000000e+00  -4.2200602960703660e-06 3.7080493969830765e-07 0.0000000000000000e+00  3.9718573510324803e-06 -4.0044157086181646e-07 0.0000000000000000e+00  -5.7603253791414829e-06 -9.5649768314438276e-09 0.0000000000000000e+00  1.1458734948415976e+00 7.5161593983283892e-06 0.0000000000000000e+00  3.0954482129822423e-07 -6.2252434356113340e-09 0.0000000000000000e+00  -4.0200762807897110e-06 1.5291114874566472e-08 0.0000000000000000e+00  1.1349509845856684e-06 -6.5955899144632265e-09 0.0000000000000000e+00  1.1851843524612391e+00 1.4297092241377773e-02 0.0000000000000000e+00  -1.3948356807790505e-06 5.8825078952762949e-09 0.0000000000000000e+00  2.5118384626416311e-06 1.4051651693611905e-08 0.0000000000000000e+00  -1.1257227318922709e-06 -1.5668177922042062e-07 0.0000000000000000e+00  -5.6913893076121894e-06 1.4694668719140259e-06 0.0000000000000000e+00  -3.5251182910494861e-06 6.2097058677951287e-07 0.0000000000000000e+00  -5.8346186076674817e-06 -5.4135115889162678e-07 0.0000000000000000e+00  3.6687918654967983e-07 4.6710608742525580e-10 0.0000000000000000e+00  1.1453148830382449e+00 -9.3594440958915271e-04 0.0000000000000000e+00  -1.4740212689478522e-06 -4.5097118915757713e-09 0.0000000000000000e+00  1.1461680896677022e+00 5.3527189487072128e-05 0.0000000000000000e+00  1.1462086410018515e+00 -4.8810303188878234e-04 0.0000000000000000e+00  1.1457825963773118e+00 7.6205687538840225e-05 0.0000000000000000e+00  1.1419934331026973e+00 -2.7988392774422784e-02 0.0000000000000000e+00  1.1458035602670258e+00 -3.2559184838325301e-05 0.0000000000000000e+00  2.0428344124587809e+00 -9.4613488747445795e-02 0.0000000000000000e+00  1.1457884409504460e+00 -6.8111761756563683e-05 0.0000000000000000e+00  1.1459334265550742e+00 -1.4186272318053909e-04 0.0000000000000000e+00  1.1428616915356540e+00 3.9765791141033635e-05 0.0000000000000000e+00  1.3000317099118930e+00 -7.9204032278107784e-03 0.0000000000000000e+00  1.2926173367226745e+00 6.7554071743793728e-02 0.0000000000000000e+00  1.5186713234464901e+00 1.4257649211915047e-01 0.0000000000000000e+00  1.1249989929570818e+00 -9.1190762984944037e-07 0.0000000000000000e+00  1.1249902247954042e+00 -6.0613667960999308e-07 0.0000000000000000e+00  1.1459115307462229e+00 -5.3918890639202167e-05 0.0000000000000000e+00  1.6441930809253855e+00 3.4928368913247249e-01 0.0000000000000000e+00  7.0599242907653859e-01 3.5444971930131845e-02 0.0000000000000000e+00  1.4945716234797259e+00 -2.9830978439199474e-01 0.0000000000000000e+00  1.1879984983414489e+00 9.8798390372222752e-02 0.0000000000000000e+00  1.1324753417012658e+00 -6.0788435128467293e-06 0.0000000000000000e+00  1.1435450864836687e+00 -2.5392156254241513e-05 0.0000000000000000e+00  1.1446492568593207e+00 7.4090230244211694e-05 0.0000000000000000e+00  1.0279220566729084e+00 -1.3692510796487087e-01 0.0000000000000000e+00  1.1308044205436631e+00 -2.0825006437213202e-04 0.0000000000000000e+00  1.1458483153517536e+00 2.2881942117182466e-03 0.0000000000000000e+00  1.1418497037722231e+00 -4.1133055844543353e-05 0.0000000000000000e+00  1.1428878679246015e+00 -2.6065613132321354e-04 0.0000000000000000e+00  1.1435032103788658e+00 -1.1543458602333799e-04 0.0000000000000000e+00  1.1430298225032620e+00 -3.0530361715012521e-04 0.0000000000000000e+00  1.1436237040322981e+00 -6.5673859637895758e-05 0.0000000000000000e+00  1.1434219878500602e+00 1.4969296888510126e-04 0.0000000000000000e+00  1.1406239484583112e+00 -2.1942536604400891e-03 0.0000000000000000e+00  1.1173146347783949e+00 2.5536314732442877e-05 0.0000000000000000e+00  1.1167717201960272e+00 -8.0660655760901950e-05 0.0000000000000000e+00  1.1460124324431669e+00 -1.5148953436549265e-05 0.0000000000000000e+00  1.1898660141826229e+00 2.6006776129723430e-01 0.0000000000000000e+00  1.1451065749177811e+00 1.1736772826745252e-04 0.0000000000000000e+00  -5.1163503662648402e-01 1.1700165257801465e-01 0.0000000000000000e+00  1.1844739009615231e+00 -5.7916516033125434e-02 0.0000000000000000e+00  1.1467598649526980e+00 -1.3950841605623494e-03 0.0000000000000000e+00  1.4089005079653916e+00 2.3440646281875574e-01 0.0000000000000000e+00  1.1457816935551581e+00 -2.0672891071283754e-05 0.0000000000000000e+00  1.8715090924286746e+00 -1.0951949920748777e-01 0.0000000000000000e+00  1.1385077556074641e+00 -2.4541963394404395e-01 0.0000000000000000e+00  -5.3269898666537522e-07 1.0849197178932087e-08 0.0000000000000000e+00  1.0989773713250999e+00 1.8858376216147199e-04 0.0000000000000000e+00  -1.6619880986817770e-06 8.2908137599149117e-09 0.0000000000000000e+00  -6.5602471133614285e-06 1.1223778714998838e-08 0.0000000000000000e+00  1.1460899147809718e+00 2.3868277375993148e-05 0.0000000000000000e+00  2.1814731975558309e-06 -5.0385831358411417e-07 0.0000000000000000e+00  1.1161051666891155e+00 -2.5436594166003587e-05 0.0000000000000000e+00  -2.3549561352250390e-06 2.2625756121601660e-10 0.0000000000000000e+00  -1.9445541328819892e-06 3.1820463465969681e-09 0.0000000000000000e+00  1.1235582271025071e+00 -2.4485257937286530e-05 0.0000000000000000e+00  -2.7053539973587585e-06 1.2556157072930685e-07 0.0000000000000000e+00  1.7174766820135561e+00 -4.3928520719507125e-01 0.0000000000000000e+00  1.5175491040993179e+00 -2.7969359532280574e-01 0.0000000000000000e+00  1.1425777334343223e+00 -8.5628454205098140e-03 0.0000000000000000e+00  1.3349507318654219e+00 -9.9316109797848814e-02 0.0000000000000000e+00  1.4724801625746284e+00 -3.3162865260867064e-01 0.0000000000000000e+00  1.3741197940875529e+00 1.3172286253081028e-01 0.0000000000000000e+00  1.3222776217275147e+00 3.7165033927863045e-01 0.0000000000000000e+00  1.1458314266087513e+00 3.9696910271269569e-05 0.0000000000000000e+00  1.1162977301661121e+00 -1.7742175465860035e-04 0.0000000000000000e+00  -6.1043282800128684e-07 1.4308923543549013e-09 0.0000000000000000e+00  1.1074984842836000e+00 1.7437868203213570e-02 0.0000000000000000e+00  1.1550915075079442e+00 -1.1125580102505880e-02 0.0000000000000000e+00  1.1460427424247155e+00 7.1702386801058264e-05 0.0000000000000000e+00  1.1456738269375757e+00 -5.2097512534087041e-04 0.0000000000000000e+00  1.1163726163461218e+00 -2.8020138558774494e-04 0.0000000000000000e+00  -2.7185836689498214e-06 6.9889007321455492e-09 0.0000000000000000e+00  1.1457966694873081e+00 -7.3516828744488310e-05 0.0000000000000000e+00  1.1166109864380431e+00 2.1145414952896115e-05 0.0000000000000000e+00  1.6786516351454124e+00 8.6737494325584766e-02 0.0000000000000000e+00  1.1456774794610174e+00 -2.0804448699504141e-04 0.0000000000000000e+00  1.1454398638890324e+00 -2.4463005276657256e-03 0.0000000000000000e+00  -9.9034011022536820e-06 -1.4861411884381002e-06 0.0000000000000000e+00  -1.2892064940328415e-05 -2.4311262876087088e-09 0.0000000000000000e+00  1.2953148606996077e+00 -7.9404552312547366e-03 0.0000000000000000e+00  1.2984929629391910e+00 -6.6839327647284300e-02 0.0000000000000000e+00  1.5413195554628547e+00 -2.3161207803023010e-01 0.0000000000000000e+00  1.1482443276310359e+00 -1.1519411408275817e-03 0.0000000000000000e+00  -3.1083919266374536e-06 -3.0246855844410905e-07 0.0000000000000000e+00  6.5625067104519985e-01 -2.7636663214481764e-07 0.0000000000000000e+00  1.0720400022514085e+00 -2.6816219898877962e-03 0.0000000000000000e+00  1.2843228279504972e+00 -1.3428103770292907e-01 0.0000000000000000e+00  1.4053427537865002e+00 2.4621172597848717e-01 0.0000000000000000e+00  -4.5727119972996494e-06 9.3385388553549153e-09 0.0000000000000000e+00  1.1113702279509028e+00 9.5351087643899722e-05 0.0000000000000000e+00  1.1460269685448423e+00 -5.0388319476597996e-06 0.0000000000000000e+00  -3.4126244983755099e-06 9.7850525515141316e-10 0.0000000000000000e+00  -1.0113796367829567e-05 5.4608735547188936e-09 0.0000000000000000e+00  -4.0015536600871825e-06 -1.6818320140410780e-08 0.0000000000000000e+00  1.7112848804361739e-06 1.1343430776106601e-08 0.0000000000000000e+00  -2.1679479031037283e-06 -6.4091586481445675e-09 0.0000000000000000e+00  -1.1848250640549889e-05 1.0937314677457432e-06 0.0000000000000000e+00  8.7312998107099446e-07 7.6657801261585416e-08 0.0000000000000000e+00  -2.7647325975332669e-06 -2.3370063745385176e-07 0.0000000000000000e+00  8.4701602154941633e-06 -1.3277215042683251e-07 0.0000000000000000e+00  1.0069643516598571e-06 6.2541320036479549e-07 0.0000000000000000e+00  -4.2193504620940087e-06 -3.3411080324106496e-07 0.0000000000000000e+00  1.0494882296060862e-06 1.3253388915692176e-07 0.0000000000000000e+00  -1.4498127139606395e-07 2.9213649023896105e-09 0.0000000000000000e+00  9.8203384099245700e-06 -3.4207973927632307e-08 0.0000000000000000e+00  -5.6922555783564782e-07 1.2611242297566729e-07 0.0000000000000000e+00  -8.4814593376155721e-07 -1.6506473700243770e-08 0.0000000000000000e+00  -7.2242498924849877e-06 -8.2598857903311379e-09 0.0000000000000000e+00  -2.1212735826494121e-06 2.8518829207462890e-10 0.0000000000000000e+00  -6.4391762886365923e-07 7.1330942916019350e-09 0.0000000000000000e+00  1.0707468440405767e+00 9.6402310068648508e-05 0.0000000000000000e+00  1.0715034430046433e+00 -1.7238504601718634e-04 0.0000000000000000e+00  1.0929607667662602e+00 1.9735324805161838e-04 0.0000000000000000e+00  1.1090785162130135e+00 -2.7359645800898922e-04 0.0000000000000000e+00  1.1460953943224899e+00 7.8960478922403962e-05 0.0000000000000000e+00  1.1457842715754609e+00 -1.0717464873802231e-04 0.0000000000000000e+00  1.0608486925608869e+00 -3.2414979359324185e-02 0.0000000000000000e+00  1.0544807076610465e+00 1.9531700513566496e-05 0.0000000000000000e+00  -5.9604690007784333e-01 1.0547242838535503e-02 0.0000000000000000e+00  1.5712387798679466e+00 1.3672798830860552e-01 0.0000000000000000e+00  2.5544133650233586e-01 -8.8689520311817219e-02 0.0000000000000000e+00  1.1459998083027969e+00 -6.6077631801949080e-05 0.0000000000000000e+00  1.1461041688122022e+00 -6.4827790225915934e-05 0.0000000000000000e+00  1.1461107377818380e+00 -6.8791639859498935e-05 0.0000000000000000e+00  1.1460474663331590e+00 -3.2089288110790370e-05 0.0000000000000000e+00  1.0689887002175105e+00 2.2150496193193585e-05 0.0000000000000000e+00  1.0926098409457152e+00 -1.4564503723898489e-04 0.0000000000000000e+00  1.0551141174889473e+00 4.2756933809412461e-05 0.0000000000000000e+00  1.1405703545306389e+00 2.9099892401473167e-05 0.0000000000000000e+00  1.1299040710324366e+00 8.5018325646835841e-02 0.0000000000000000e+00  8.4408788685779423e-01 -1.1772162377520624e-01 0.0000000000000000e+00  6.7655334167817271e-01 9.9523266051427722e-02 0.0000000000000000e+00  1.1460098662060723e+00 5.3628409927300630e-05 0.0000000000000000e+00  1.1457026049869301e+00 -6.0563118237563088e-05 0.0000000000000000e+00  1.1459135072818680e+00 -1.8951153373014757e-05 0.0000000000000000e+00  1.0976502127370220e+00 5.6403948287856654e-05 0.0000000000000000e+00  1.1460426814039641e+00 7.8093983753440565e-05 0.0000000000000000e+00  1.1459755296549903e+00 -2.7208834714711328e-04 0.0000000000000000e+00  1.0816865716038706e+00 1.8558147022203183e-05 0.0000000000000000e+00  1.1458684059041035e+00 3.1516640083855684e-05 0.0000000000000000e+00  1.0737255686988194e+00 9.5660698023875641e-05 0.0000000000000000e+00  1.4627324082807489e+00 6.3365590044033460e-03 0.0000000000000000e+00  6.5624823178676661e-01 -2.9801339362121707e-07 0.0000000000000000e+00  7.5287593346005710e-01 6.7845388966997253e-02 0.0000000000000000e+00  1.4051849488714216e+00 1.2251886689776013e-01 0.0000000000000000e+00  1.6826412409695526e+00 3.3910989672718728e-01 0.0000000000000000e+00  1.0276558324039538e+00 6.9162514194813420e-06 0.0000000000000000e+00  1.1609855204427477e+00 -2.6190666505172776e-02 0.0000000000000000e+00  1.1458147964833403e+00 -1.0180405990935124e-03 0.0000000000000000e+00  1.1454348894523685e+00 -5.3963595439936749e-05 0.0000000000000000e+00  1.1457922265727261e+00 -2.0220605534794551e-05 0.0000000000000000e+00  1.1457501879857341e+00 -5.4842803777181140e-05 0.0000000000000000e+00  1.2024530971859608e+00 1.7408016627200665e-01 0.0000000000000000e+00  8.4651327884207650e-01 1.2565897192096664e-01 0.0000000000000000e+00  7.1674656455655228e-01 1.0079662062071153e-02 0.0000000000000000e+00  1.1460613621954516e+00 2.7295870859258631e-06 0.0000000000000000e+00  1.1453608148106917e+00 -6.7817230749915099e-06 0.0000000000000000e+00  1.4394591611305398e+00 -3.6583440893555572e-02 0.0000000000000000e+00  1.1458607549061084e+00 -5.5698318585159346e-05 0.0000000000000000e+00  7.8338711405007788e-01 -8.8596100712405229e-02 0.0000000000000000e+00  1.0430100909770030e+00 5.4569394814477951e-05 0.0000000000000000e+00  8.0139618589997008e-01 7.3172650952470455e-02 0.0000000000000000e+00  9.4235896680181164e-01 9.5578381410699340e-02 0.0000000000000000e+00  6.3090859918790643e-01 3.8704861884104949e-03 0.0000000000000000e+00  1.5190871135334565e+00 2.8658176149620684e-01 0.0000000000000000e+00  1.1459404632776633e+00 1.0849389415377485e-04 0.0000000000000000e+00  1.1578436000318169e+00 1.3886860723314640e-03 0.0000000000000000e+00  1.2244973474063781e+00 1.7931333510365352e-01 0.0000000000000000e+00  1.0736880531913600e+00 7.5225028661145625e-06 0.0000000000000000e+00  1.1302230605694907e+00 -1.3082428780025526e-04 0.0000000000000000e+00  1.1454662249605139e+00 -3.8893158631866177e-04 0.0000000000000000e+00  1.1458322625613333e+00 -2.2255590300252804e-04 0.0000000000000000e+00  1.4093028862837773e+00 1.5134991903455500e-02 0.0000000000000000e+00  1.1456729032901172e+00 5.0501522037510669e-05 0.0000000000000000e+00  1.1458216207626717e+00 -1.4889601824888338e-05 0.0000000000000000e+00  1.1455865744976270e+00 -3.2235800197437682e-05 0.0000000000000000e+00  1.1442349445715077e+00 -1.4467243016511890e-03 0.0000000000000000e+00  9.5619632119987785e-01 -2.9784745470801073e-04 0.0000000000000000e+00  9.5610101433095451e-01 -2.8403548305866840e-04 0.0000000000000000e+00  1.0078234544894071e+00 -6.1712972209995145e-04 0.0000000000000000e+00  1.0488090396569760e+00 -2.3982143321554474e-04 0.0000000000000000e+00  1.0763453256034834e+00 2.4889951464110748e-05 0.0000000000000000e+00  1.1453696093085644e+00 -6.8187260526145161e-05 0.0000000000000000e+00  9.9369696221757087e-01 -1.5686076187060627e-04 0.0000000000000000e+00  1.1461311506236667e+00 8.1902548471716482e-06 0.0000000000000000e+00  1.1456823397867062e+00 -2.7124792006053720e-05 0.0000000000000000e+00  1.3403119851370686e+00 -9.3866239544859495e-02 0.0000000000000000e+00  1.1460085807244793e+00 -4.3719225079387670e-05 0.0000000000000000e+00  1.1458173765212007e+00 -9.7206261331748128e-07 0.0000000000000000e+00  1.1474796633862878e+00 -7.4174636732752069e-02 0.0000000000000000e+00  9.0462755221265889e-01 -2.4332251006560696e-04 0.0000000000000000e+00  1.1406252306735942e+00 -3.8902395408009445e-04 0.0000000000000000e+00  1.5347671063776616e+00 -5.2330252212441852e-01 0.0000000000000000e+00  1.0327794905058869e+00 2.1278332971201247e-04 0.0000000000000000e+00  7.3757723382781104e-01 -7.7424314761497318e-02 0.0000000000000000e+00  1.4750917442059683e+00 -4.6719530612930903e-02 0.0000000000000000e+00  1.0238397624980764e+00 2.3447472309424881e-03 0.0000000000000000e+00  9.4876491428712906e-01 1.2124340232116250e-04 0.0000000000000000e+00  1.5388537195247083e+00 4.8019002006267597e-01 0.0000000000000000e+00  1.0110375330339263e+00 1.8334020890611011e-01 0.0000000000000000e+00  1.0080151610126189e+00 1.0014309943787676e-04 0.0000000000000000e+00  1.9208029429000109e+00 2.6087723581798206e-01 0.0000000000000000e+00  1.4526645348410843e+00 -5.0722460224764765e-01 0.0000000000000000e+00  9.7365230391376822e-01 -1.9009653765723206e-01 0.0000000000000000e+00  9.9397725512613500e-01 -6.0207057005803380e-03 0.0000000000000000e+00  7.6034730486929158e-01 -7.1852711328475219e-02 0.0000000000000000e+00  9.8826865887803883e-01 3.3446258624641523e-05 0.0000000000000000e+00  1.0262054864238586e+00 5.4043207224225244e-05 0.0000000000000000e+00  1.1451699930251606e+00 -2.3215843406286792e-04 0.0000000000000000e+00  2.3222765731255143e-01 -1.4651110493261391e-01 0.0000000000000000e+00  1.4062434290126733e+00 -1.9916019663743854e-06 0.0000000000000000e+00  1.1460128176437911e+00 4.6499288491731213e-05 0.0000000000000000e+00  1.0088786873565583e+00 -6.7684072360989147e-04 0.0000000000000000e+00  1.4062431974041834e+00 -1.7509192610519167e-06 0.0000000000000000e+00  1.0087225719100881e+00 -3.0256412408769535e-05 0.0000000000000000e+00  1.1443989556547713e+00 -4.3665712594553579e-03 0.0000000000000000e+00  1.1560342596027631e+00 6.4055573975652216e-02 0.0000000000000000e+00  1.1456292188263331e+00 -5.0981010384917602e-05 0.0000000000000000e+00  7.1694940297615528e-01 1.0059162261105374e-01 0.0000000000000000e+00  1.1459193789740065e+00 -5.3431351822636488e-06 0.0000000000000000e+00  9.8935089143709432e-01 -2.4997046273956630e-04 0.0000000000000000e+00  9.4158928883376025e-01 2.5317688907021303e-02 0.0000000000000000e+00  8.5200151434069704e-01 8.8728831348025517e-05 0.0000000000000000e+00  1.1446474524817598e+00 -4.6789729401717750e-06 0.0000000000000000e+00  8.5251880270691927e-01 6.2540133029045236e-06 0.0000000000000000e+00  9.5469040361310