<?xml version="1.0"?>
<VTKFile type="UnstructuredGrid"  version="0.1"  >
<UnstructuredGrid>
<Piece  NumberOfPoints="2446" NumberOfCells="4585">
<Points>
<DataArray  type="Float64"  NumberOfComponents="3"  format="ascii">0 0.41 0  0 0 0  2.2 0 0  2.2 0.41 0  0.2404508497187474 0.2293892626146237 0  0.25 0.2 0  0.2404508497187474 0.1706107373853764 0  0.2154508497187474 0.1524471741852423 0  0.1845491502812526 0.1524471741852423 0  0.1595491502812526 0.1706107373853764 0  0.15 0.2 0  0.1595491502812526 0.2293892626146237 0  0.1845491502812527 0.2475528258147577 0  0.2154508497187474 0.2475528258147577 0  1.1 0 0  1.1 0.41 0  0 0.205 0  0.55 0 0  0.55 0.41 0  0.275 0 0  0.275 0.41 0  1.65 0.41 0  1.65 0 0  0.8250000000000001 0.41 0  0.8250000000000001 0 0  1.375 0 0  1.375 0.41 0  1.925 0 0  1.925 0.41 0  1.5125 0.205 0  1.7875 0.205 0  0.6875 0.205 0  0.9625000000000001 0.205 0  1.2375 0.205 0  2.2 0.205 0  0.4687002074688797 0.2068568464730291 0  1.99375 0.2152743902439024 0  2.0625 0 0  2.0625 0.41 0  2.2 0.3075 0  0.4125 0 0  0.4125 0.41 0  1.7875 0.41 0  1.375 0.1486128048780488 0  1.5125 0 0  1.7875 0 0  1.5125 0.41 0  0.8250000000000001 0.2613871951219511 0  0.9625000000000001 0.41 0  0.9625000000000001 0 0  0.6875 0.41 0  0.6875 0 0  0.1375 0 0  0.1375 0.41 0  1.2375 0 0  1.1 0.1486128048780487 0  1.2375 0.41 0  1.65 0.1486128048780487 0  1.126715909090909 0.2793064024390244 0  1.676715909090909 0.2793064024390244 0  0.8517159090909092 0.1306935975609756 0  1.348284090909091 0.2793064024390244 0  0.34375 0.3032389320646208 0  1.894702181800738 0.1282910975492754 0  2.092797818199262 0.1282910975492754 0  1.85625 0.3075 0  0.61875 0.3075 0  0.61875 0.1025 0  0.3648540804333487 0.1240075933101478 0  0 0.3075 0  0 0.1025 0  2.099172119769978 0.25625 0  0.48125 0.09238439620688085 0  0.5781001037344399 0.2059284232365146 0  0.48125 0.3196743479159776 0  0.7265881057911006 0.3055240343720796 0  1.99375 0.08395950269330846 0  1.459960956013612 0.3075 0  1.569025960719943 0.2986889805672169 0  0.75625 0.08213100772579164 0  1.03125 0.3278689922742084 0  0.923871252904788 0.3078247185783941 0  1.959375 0.3126371951219512 0  1.749222215368287 0.1025 0  1.275777784631713 0.1025 0  2.2 0.1025 0  1.225938124459196 0.3075 0  1.550777784631713 0.1025 0  1.000777784631713 0.1025 0  1.44375 0.07430640243902442 0  1.16875 0.07430640243902437 0  1.899250267340833 0.2229966846119207 0  0.1020898364287272 0.3140258291809757 0  1.766482954545455 0.2934032012195123 0  0.3405058858996321 0.2119987970531874 0  0.7710785630958338 0.1710968191298857 0  1.046078563095834 0.2389031808701144 0  0.2 0.3400647632937836 0  1.421109702350723 0.2261157654379721 0  0.2800464974185557 0.08982544815605742 0  0.098916018031319 0.09171660955420841 0  2.13125 0 0  2.118919042110979 0.3422084711244843 0  1.30625 0.41 0  0.89375 0 0  1.597888256393107 0.2173787389261347 0  0.20625 0 0  1.829299675393195 0.07400700849299596 0  1.71875 0.41 0  1.16875 0.41 0  2.038220665644273 0.332420740103091 0  0.34375 0 0  0.417496017710808 0.2696595573092803 0  0.2 0.07687845740457822 0  0.9295982307099278 0.1343158415898188 0  0.07390688010811153 0.1697064032433452 0  0.5238366813727013 0.2578302467013575 0  0.05452951551825875 0.25625 0  0.5229630068078351 0.1548816096928243 0  1.452769549894695 0.1548122580621249 0  1.369219062229598 0.07430640243902442 0  1.30625 0 0  0.8504409521244898 0.3356935975609756 0  0.8821881244591965 0.205 0  1.720943423819132 0.1714577452753128 0  1.157188124459196 0.205 0  1.094219062229598 0.07430640243902437 0  1.03125 0 0  1.304056576180868 0.1714577452753128 0  1.67579304192913 0.07430640243902437 0  0.2751941921308361 0.3346083473122598 0  1.209670467133757 0.1362100266964769 0  1.025335513626278 0.1700681449722324 0  0.7562500000000001 0.41 0  1.58125 0 0  0.7567170593862014 0.2409196493502535 0  0.6926714215682891 0.1272249611432207 0  0.4139715849905988 0.3397932387114203 0  0.9840787304190477 0.2717749043358119 0  0.06875000000000001 0.41 0  0 0.35875 0  0.9281250000000001 0.06276726142697993 0  0.5507396469029935 0.3219409231578227 0  0.5504468037989405 0.09136885600634273 0  1.58125 0.41 0  1.631724228912893 0.3381867502687533 0  1.825608881788174 0.14499488549201 0  1.85625 0 0  1.44375 0 0  1.44375 0.41 0  1.85625 0.41 0  2.13125 0.41 0  0.7562500000000001 0 0  0.89375 0.41 0  0.4812500000000001 0 0  0.34375 0.41 0  0.4812500000000001 0.41 0  0.20625 0.41 0  0.06875000000000001 0 0  1.16875 0 0  0.61875 0 0  0.61875 0.41 0  1.03125 0.41 0  1.71875 0 0  1.99375 0 0  1.99375 0.41 0  1.340625 0.3489494290853124 0  1.134375 0.3489494290853123 0  1.700180620188976 0.3438659752031281 0  2.135782184673599 0.07126652247502523 0  1.668441847249787 0.2129203728327609 0  1.295782514339747 0.2378437748815763 0  0.8233075729931248 0.06842334294821524 0  1.409375 0.3520314716057996 0  0.403505597322782 0.182067236678212 0  0.378125 0.05794951541303489 0  0.3043468223249023 0.1518321115979534 0  2.129248544730567 0.1906135162504124 0  2.060771381434487 0.1989445750470348 0  2.013252586573865 0.1496169464686054 0  1.942766402200229 0.1734448904596831 0  1.895522487186454 0.06076163953489683 0  2.069553871656643 0.06605731020975725 0  1.274680914880868 0.3520219391081363 0  1.614713220494657 0.09473434380863296 0  0.7899021319497519 0.3149123934144827 0  0.69518737419149 0.0634051089053758 0  0.2971740475496061 0.2592172353407536 0  1.72990325744076 0.2380068107952482 0  1.356580098625191 0.2120393231351682 0  2.034370752044885 0.2668681600792073 0  1.51768709249349 0.3426260931494756 0  1.561883724969884 0.1650446847858835 0  1.197344062229598 0.2523725417393646 0  1.804085235518364 0.3468178408964637 0  1.817887819205233 0.2589243285818559 0  1.905897727272727 0.3485060975609756 0  0.6719798073392919 0.2688965171178177 0  0 0.05125 0  0.653125 0.35875 0  0.6396896119294488 0.1627615407790282 0  0.4274150154087412 0.1242548552168279 0  1.192836486056382 0.3562350748565544 0  0.8279124365364005 0.183856489168822 0  1.097485222388854 0.2083571153401724 0  1.28257088594801 0.2944411014911587 0  1.474860187679412 0.2504218616229368 0  1.406767003493824 0.2829282258560709 0  0.446875 0.04619219810344041 0  0.515625 0.04585361801037557 0  0.592043440706648 0.05125 0  1.845656689180403 0.1998310418452388 0  2.144958525570388 0.2909790873294231 0  0.6171090763650112 0.2492366900333857 0  2.2 0.15375 0  0.5145586920831158 0.3648371739579888 0  1.57794966442982 0.3540357145964566 0  0.721875 0.3633107922168974 0  0.0496154796471391 0.333125 0  0.5843750000000001 0.3662560860076676 0  0.5810878747760798 0.1474002776121195 0  1.508991196088596 0.1421783375065625 0  0.8840670607017558 0.2640994375393898 0  0.09776612425612034 0.2204896805326566 0  1.50436820029908 0.06143401634903343 0  1.223857000523521 0.0823554862453532 0  1.153316824384777 0.1289850171317837 0  2.148922302309752 0.1258841779285271 0  0.309375 0.04312325590431198 0  1.621993280276081 0.2841214267927899 0  1.550118654119087 0.2461998729100966 0  1.327182649291491 0.1216967252533594 0  1.051977450479407 0.1221382572915816 0  1.753125 0.04556020050186112 0  1.271875 0.04556020050186116 0  0.9816084133102366 0.05126138213476004 0  1.039051841454368 0.0572224914831029 0  0.9719230514536006 0.3480477870845102 0  1.94956388244759 0.1180512551534177 0  1.949997712993411 0.04965831614304109 0  1.771961817615021 0.1530278789497521 0  1.909246823951428 0.2812757146784527 0  0.2459536687882397 0.04668633953831142 0  1.948575539857022 0.2445328248721197 0  1.697271520964565 0.1233917627620729 0  0.7964897648514618 0.1211426571931604 0  1.065625 0.3689344961371042 0  1.085849084308977 0.3170853572226867 0  0.4702981435440001 0.260434880697798 0  1.577403511714593 0.05463601888079143 0  0.05622663515370135 0.05493816910862376 0  0.3267207591099919 0.3566194660323104 0  0.9003051618565143 0.3564049499960621 0  1.751571320346033 0.3651102912045228 0  0.1583785085108421 0.2994699345738728 0  0.1455283439499995 0.3542795598723423 0  2.2 0.35875 0  0.2347662494194072 0.298325008655211 0  0.1527284455616188 0.1065771775690181 0  0.1382139529076665 0.05427454456341477 0  0.8749341636311069 0.05110114999892954 0  0.643661668713109 0.05693499781019222 0  1.466879772203159 0.3611261772912453 0  1.990280163552011 0.3564754268533217 0  1.17471064520912 0.2990917256188288 0  0.5202693090594349 0.206382495511728 0  0 0.25625 0  2.2 0.25625 0  2.2 0.05125 0  0 0.15375 0  1.853978576207987 0.35875 0  0.9787513713939683 0.1487523696999336 0  0.240625 0.3722153812029779 0  1.515638456102889 0.2882700110184686 0  0.09048297387599738 0.3637717362208066 0  2.150453692751374 0.2387066338105111 0  1.323782677156475 0.04897634338873398 0  0.8074131292871642 0.3624701995505916 0  1.409375 0.03715320121951221 0  1.406484531114799 0.1087852750766809 0  1.134375 0.03715320121951218 0  1.627401732573545 0.04552157221025036 0  0.1170173172005315 0.1427610859166811 0  2.045405893604797 0.1105340662939892 0  1.255408269734577 0.1577307500159216 0  2.028125 0.03707597992059326 0  0.4743610090857199 0.1421513964721819 0  0.9354010469015898 0.250631300585664 0  0.04420832937638274 0.128125 0  0.8922386349349938 0.0992956419364831 0  0.1197849154434487 0.2663398672460083 0  1.248258025468107 0.2565907092181813 0  0.3746885856929528 0.370723531618974 0  1.203125 0.0366132337404304 0  0.5724622277005015 0.2751253816079333 0  0.3365425205162783 0.08395777655057959 0  2.072662025974815 0.2975086504196739 0  0.4581080832182547 0.3648371739579888 0  0.3874522734668214 0.2295447548840689 0  0.7827853612484443 0.04106550386289586 0  1.887722846421017 0.1760882698830035 0  1.472640588990488 0.1118278026240017 0  1.865937103925594 0.2604137786483804 0  1.463913572748262 0.2030442564990043 0  1.376426316059077 0.3186741374914345 0  0.6641993820150034 0.3141688596240831 0  0.2943117490824315 0.2130987422685822 0  0.3478153998082709 0.1666571081082676 0  0.3427990510599805 0.2575950027870776 0  0.7997118993855807 0.2216171933356366 0  
[...]
<PointData  Vectors="f_31"> 
<DataArray  type="Float64"  Name="f_31"  NumberOfComponents="3" format="ascii">2.1589377647103557e-06 1.0922876880380929e-07 0.0000000000000000e+00  -2.2088165143993094e-06 -1.9724444839589137e-08 0.0000000000000000e+00  3.9047209996416788e-06 3.3174315690792884e-09 0.0000000000000000e+00  -1.7764284818789323e-05 -8.6461228322518028e-08 0.0000000000000000e+00  -1.6179201525023810e-05 3.9468991547634617e-06 0.0000000000000000e+00  -9.6261290071384602e-06 1.5913962983101983e-05 0.0000000000000000e+00  -1.1106729660274826e-05 1.8220661053221126e-05 0.0000000000000000e+00  -1.1735476610798132e-05 -8.4272937402776925e-06 0.0000000000000000e+00  -1.4283989676340945e-05 -6.7810408769615260e-06 0.0000000000000000e+00  -7.9817686259087668e-06 1.8777122906910045e-06 0.0000000000000000e+00  8.4366047335311972e-07 7.9789834597187900e-06 0.0000000000000000e+00  -6.5913738021965969e-06 -3.1375169384529274e-06 0.0000000000000000e+00  7.9509837342919192e-06 4.2586823919581007e-06 0.0000000000000000e+00  -1.5831100441458676e-05 3.0938974116523943e-06 0.0000000000000000e+00  -2.8869859182051789e-06 -4.4949908411421451e-08 0.0000000000000000e+00  -5.5929924183452395e-07 -5.8341386962712783e-08 0.0000000000000000e+00  1.5000041352691069e+00 1.3225345962207287e-06 0.0000000000000000e+00  -1.2175039202759262e-05 -3.9655823028717581e-07 0.0000000000000000e+00  -2.7124078001419983e-06 5.1984890592403484e-08 0.0000000000000000e+00  1.6230900172535740e-05 -1.4241707840644009e-07 0.0000000000000000e+00  8.4710245084086428e-06 7.1148476978092372e-08 0.0000000000000000e+00  3.0189833006566549e-07 7.2450102603118431e-08 0.0000000000000000e+00  -4.1924366804848391e-07 -1.6751079973876307e-08 0.0000000000000000e+00  8.7149984511282924e-07 4.2876149055937438e-08 0.0000000000000000e+00  -6.2413227578352254e-06 4.4695070067285181e-08 0.0000000000000000e+00  -3.9768812518655930e-06 -3.4667481135313765e-08 0.0000000000000000e+00  -9.8611346011835918e-07 -1.0701896150313092e-09 0.0000000000000000e+00  -3.6991215285953939e-06 1.4343680024560150e-07 0.0000000000000000e+00  -3.0340649238130519e-06 -2.9592422003308306e-08 0.0000000000000000e+00  1.0924701580843599e+00 4.8588108749251361e-05 0.0000000000000000e+00  1.0923867957709308e+00 1.5705937195126483e-05 0.0000000000000000e+00  1.0915522110176845e+00 -2.6599826858221434e-03 0.0000000000000000e+00  1.0923021986581636e+00 -1.9712084183600261e-04 0.0000000000000000e+00  1.0921248286446028e+00 -2.6574327721676592e-05 0.0000000000000000e+00  1.0924899620579163e+00 1.0103877865832379e-04 0.0000000000000000e+00  9.7473754383504541e-01 -3.1174848948862247e-02 0.0000000000000000e+00  1.0922606437143059e+00 -9.1755888151369437e-06 0.0000000000000000e+00  -1.5966641994717657e-07 2.4377321781315774e-08 0.0000000000000000e+00  -1.6412262380088121e-06 -8.1033922633286398e-08 0.0000000000000000e+00  1.0919334904597415e+00 1.0271699337866379e-04 0.0000000000000000e+00  -3.5775609517328417e-06 -9.2940775834341630e-08 0.0000000000000000e+00  -3.1806513348561197e-06 2.9420349371654661e-07 0.0000000000000000e+00  -6.5414031378348454e-06 1.7937770994607641e-08 0.0000000000000000e+00  1.0923769703711856e+00 9.5349211077653035e-05 0.0000000000000000e+00  -1.8651998903094607e-06 8.0052978874363175e-08 0.0000000000000000e+00  -4.4912014499800577e-06 -2.6774001805666365e-08 0.0000000000000000e+00  2.9903449574526480e-07 3.2098523106592838e-09 0.0000000000000000e+00  1.0927110703286025e+00 -6.7128657696614163e-04 0.0000000000000000e+00  -2.6896902635769529e-06 -3.3269760279221125e-08 0.0000000000000000e+00  2.5866403422743277e-06 -1.1823954184819740e-07 0.0000000000000000e+00  2.7802509777889500e-06 1.4205028659686057e-08 0.0000000000000000e+00  -7.5211069197676203e-06 6.3851744836881885e-08 0.0000000000000000e+00  -4.2526911383853523e-06 -6.2174774589517173e-07 0.0000000000000000e+00  -3.7790941155066738e-06 1.0942973528900359e-06 0.0000000000000000e+00  3.5046519540371827e-07 1.2903879000527745e-08 0.0000000000000000e+00  1.0921439533220394e+00 -8.8209346704455898e-05 0.0000000000000000e+00  -2.3198186570545299e-06 -9.2719470822352666e-08 0.0000000000000000e+00  1.0924087552762953e+00 -5.1303229350896232e-05 0.0000000000000000e+00  1.0922481371589496e+00 -1.8732768538360701e-05 0.0000000000000000e+00  1.0921933477862062e+00 1.0850736879829180e-05 0.0000000000000000e+00  1.0920774655589398e+00 -5.1185321614571574e-04 0.0000000000000000e+00  1.0924599806704185e+00 -7.4512974167970569e-05 0.0000000000000000e+00  1.6822961502740708e+00 -2.5572350685796152e-01 0.0000000000000000e+00  1.0923803036914748e+00 -1.2458230794350640e-04 0.0000000000000000e+00  1.0923769152579148e+00 4.3094351721896817e-05 0.0000000000000000e+00  1.0921463367225368e+00 1.6322953525138093e-04 0.0000000000000000e+00  1.0993300536891357e+00 -6.2757092737407072e-03 0.0000000000000000e+00  1.0915296764364482e+00 2.9314348920957665e-04 0.0000000000000000e+00  1.4738887445170556e+00 4.8265345081970346e-01 0.0000000000000000e+00  1.1249989621217744e+00 6.0912817830081969e-07 0.0000000000000000e+00  1.1249900645764510e+00 9.2573386547473170e-07 0.0000000000000000e+00  1.0923182849801427e+00 -1.5418331143098170e-06 0.0000000000000000e+00  1.1396101340099372e+00 5.3295395813672639e-02 0.0000000000000000e+00  1.0814559436879332e+00 -7.5072517484258824e-03 0.0000000000000000e+00  1.1661833488567293e+00 -6.0868092824877006e-02 0.0000000000000000e+00  1.0941484554442358e+00 -1.1705966271990077e-03 0.0000000000000000e+00  1.0919592377537655e+00 1.2529153594730556e-04 0.0000000000000000e+00  1.0922428523275356e+00 1.9587224736274206e-04 0.0000000000000000e+00  1.0919304545539450e+00 3.5362265302091878e-05 0.0000000000000000e+00  1.0908471134535738e+00 -8.0991998692599328e-04 0.0000000000000000e+00  1.0912120271437060e+00 1.1155319799349896e-04 0.0000000000000000e+00  1.0924925601065230e+00 -7.6038293598960864e-05 0.0000000000000000e+00  1.0922746006883031e+00 3.5357456136387180e-05 0.0000000000000000e+00  1.0917738199079081e+00 -7.5924386010655867e-05 0.0000000000000000e+00  1.0923483776791891e+00 -6.1280095322666951e-05 0.0000000000000000e+00  1.0919268585070037e+00 3.6285900699503956e-05 0.0000000000000000e+00  1.0923446291058390e+00 2.6349221840390311e-05 0.0000000000000000e+00  1.0920287273309628e+00 7.5837750699975868e-05 0.0000000000000000e+00  1.0924044866441696e+00 -1.3077523810174759e-04 0.0000000000000000e+00  1.0913587102603526e+00 -2.8203274066590116e-04 0.0000000000000000e+00  1.0909818190098401e+00 1.1243358011528049e-05 0.0000000000000000e+00  1.0922797970057643e+00 4.2268293355229007e-06 0.0000000000000000e+00  1.1858245311815603e+00 2.4711015660696475e-01 0.0000000000000000e+00  1.0922508659187944e+00 -9.5073993923679568e-05 0.0000000000000000e+00  -3.9940418633397901e-01 -1.4974130861344079e-01 0.0000000000000000e+00  1.0919423604216252e+00 -1.1321231138388258e-03 0.0000000000000000e+00  1.0923705099214560e+00 -5.5967903626238866e-05 0.0000000000000000e+00  1.3975008285278372e+00 2.0089755900786949e-01 0.0000000000000000e+00  1.0923056411906868e+00 2.8892445011124098e-05 0.0000000000000000e+00  1.8543904021375279e+00 1.4501084152153400e-02 0.0000000000000000e+00  1.1430677455901057e+00 -2.4513822150855849e-01 0.0000000000000000e+00  -3.2567037827896524e-07 -1.2754404669368502e-07 0.0000000000000000e+00  1.0898419326148843e+00 2.7472071383994690e-04 0.0000000000000000e+00  -2.4632446386781167e-06 6.4609656583562691e-08 0.0000000000000000e+00  -7.8262634165324180e-06 -1.8952064348652837e-08 0.0000000000000000e+00  1.0924862771072450e+00 7.2473547766048329e-06 0.0000000000000000e+00  1.0747482217514424e-05 -4.5400394574060863e-06 0.0000000000000000e+00  1.0910924413194083e+00 -5.3130044348560856e-05 0.0000000000000000e+00  -4.8497862816861096e-06 -1.0519564630558990e-07 0.0000000000000000e+00  -2.3947962643385831e-06 4.4106773172733420e-08 0.0000000000000000e+00  1.0912378329088517e+00 1.2393046695363449e-04 0.0000000000000000e+00  -2.5387486355931961e-06 3.5993458276902691e-06 0.0000000000000000e+00  1.1355491644573354e+00 -2.7891591382820968e-01 0.0000000000000000e+00  1.5361471311545540e+00 -2.4784943386134267e-01 0.0000000000000000e+00  1.0921892945175413e+00 -2.2564640118163731e-04 0.0000000000000000e+00  1.3375472876664347e+00 -1.0715619271673341e-01 0.0000000000000000e+00  1.0849113935079442e+00 -4.3222925607577900e-02 0.0000000000000000e+00  1.3734988217787585e+00 1.2467486280493555e-01 0.0000000000000000e+00  1.0697110466733215e+00 2.2650432827732152e-02 0.0000000000000000e+00  1.0923102538512508e+00 3.6524776306742703e-05 0.0000000000000000e+00  1.0902555430549152e+00 7.6114653441011339e-05 0.0000000000000000e+00  -6.0597276036661373e-07 3.7684734765498625e-08 0.0000000000000000e+00  1.0912202302047131e+00 -4.3483295882731839e-04 0.0000000000000000e+00  1.0923020141592557e+00 -4.1695475605379626e-04 0.0000000000000000e+00  1.0923055205695769e+00 1.6334468071501375e-05 0.0000000000000000e+00  1.0921075688835853e+00 -3.0769239553994686e-05 0.0000000000000000e+00  1.0912642917668267e+00 -5.5125865135771139e-05 0.0000000000000000e+00  -4.1533588106332802e-06 1.2589744990536241e-07 0.0000000000000000e+00  1.0922691106448401e+00 3.6777538826677284e-05 0.0000000000000000e+00  1.0905050422390752e+00 -4.0466866863981979e-04 0.0000000000000000e+00  1.6000618441080769e+00 3.6451609467282750e-02 0.0000000000000000e+00  1.0922511663629977e+00 5.3726937086096755e-06 0.0000000000000000e+00  1.0922403124845754e+00 -1.2696488156163410e-04 0.0000000000000000e+00  -1.4121598028343193e-06 1.1651396636322121e-08 0.0000000000000000e+00  -1.4807404472256371e-05 -8.7643395501311569e-08 0.0000000000000000e+00  1.0928163457201729e+00 -1.4319480175158594e-03 0.0000000000000000e+00  1.0912645332011344e+00 -1.2405009085388326e-03 0.0000000000000000e+00  1.2866941271990255e+00 -1.0150958004713789e-01 0.0000000000000000e+00  1.0924273885339979e+00 -1.1734570267731657e-04 0.0000000000000000e+00  -4.9413274316439514e-06 -1.4757226777263703e-06 0.0000000000000000e+00  6.5625086210913852e-01 1.8671626809015986e-07 0.0000000000000000e+00  1.0862191979365665e+00 1.1613514575941423e-04 0.0000000000000000e+00  1.1168514949980890e+00 -1.5912378685533614e-02 0.0000000000000000e+00  1.1012313179389528e+00 8.7317762685241874e-03 0.0000000000000000e+00  -6.4958404547191438e-06 1.4388558800836775e-08 0.0000000000000000e+00  1.0903456507851130e+00 2.6602751740062983e-04 0.0000000000000000e+00  1.0924188421466472e+00 -1.0635958341981575e-05 0.0000000000000000e+00  -4.3622657103540869e-06 1.5078002246923225e-07 0.0000000000000000e+00  -1.1543515412664338e-05 3.6680361803601479e-08 0.0000000000000000e+00  -5.9828875229790305e-06 -3.8693848865144947e-08 0.0000000000000000e+00  9.1123301582364199e-07 -3.4484032969231317e-08 0.0000000000000000e+00  -2.9951666760400430e-06 6.7825089359067952e-08 0.0000000000000000e+00  -1.0333935689687648e-06 7.5524047775639902e-09 0.0000000000000000e+00  1.5831670518771750e-07 5.2395353697772590e-08 0.0000000000000000e+00  -1.0560704178415017e-05 -9.7607577492474733e-08 0.0000000000000000e+00  3.9906594564273256e-07 -3.4987771914160687e-06 0.0000000000000000e+00  -1.6885376059977875e-05 2.8316646999833232e-07 0.0000000000000000e+00  7.6935988956626587e-06 4.7257182374365492e-06 0.0000000000000000e+00  -2.0424235579387276e-06 1.4933546282333594e-06 0.0000000000000000e+00  -6.9703940447605418e-07 5.4737015694136430e-08 0.0000000000000000e+00  -7.9978837892526594e-06 -1.2139096695148361e-07 0.0000000000000000e+00  -6.2895492318065262e-06 -3.6035387643705182e-08 0.0000000000000000e+00  -6.8098314704858505e-07 -1.0470849865600382e-08 0.0000000000000000e+00  -8.6475277287673869e-06 3.8934297967369967e-08 0.0000000000000000e+00  -2.2950846496213952e-06 -2.6468817573988738e-08 0.0000000000000000e+00  -8.4039542341293285e-07 7.6015402380404265e-09 0.0000000000000000e+00  1.0835962690610190e+00 1.3956215603293785e-04 0.0000000000000000e+00  1.0854396001522613e+00 2.3373769289334979e-04 0.0000000000000000e+00  1.0881167850990734e+00 2.1911526688758626e-04 0.0000000000000000e+00  1.0899546801777822e+00 -1.1277452145117548e-04 0.0000000000000000e+00  1.0924064022792144e+00 5.6456250568133346e-06 0.0000000000000000e+00  1.0922037677742389e+00 -4.5113997246031074e-05 0.0000000000000000e+00  1.0884259118021633e+00 -9.7270328226908723e-04 0.0000000000000000e+00  1.0826828863035411e+00 4.8502718149449924e-04 0.0000000000000000e+00  6.2536503987186620e-01 1.9817909970563805e-01 0.0000000000000000e+00  1.3268187488294343e+00 1.0860508268747635e-01 0.0000000000000000e+00  6.3097247436764237e-01 5.2755916718936702e-02 0.0000000000000000e+00  1.0923386837151801e+00 7.8978672225117098e-05 0.0000000000000000e+00  1.0923745689016526e+00 1.4560328279970818e-05 0.0000000000000000e+00  1.0923259040578870e+00 1.3342667498076844e-07 0.0000000000000000e+00  1.0922677132259222e+00 -1.9438156259295578e-05 0.0000000000000000e+00  1.0843483406404955e+00 -3.2227798164363882e-04 0.0000000000000000e+00  1.0880068069543984e+00 -4.6688976306902458e-06 0.0000000000000000e+00  1.0825012612839675e+00 1.1299389903749588e-04 0.0000000000000000e+00  1.0920265945574770e+00 -6.1949152351998624e-05 0.0000000000000000e+00  1.0929290051348146e+00 -4.4088029189299176e-04 0.0000000000000000e+00  1.0853641471318978e+00 -1.3441282898983477e-03 0.0000000000000000e+00  1.0129638987148299e+00 -8.8108269807716435e-03 0.0000000000000000e+00  1.0923442558422494e+00 -1.2334707405502070e-05 0.0000000000000000e+00  1.0922258514012306e+00 -2.3848287490537430e-06 0.0000000000000000e+00  1.0923513261040290e+00 -1.8099772615205009e-05 0.0000000000000000e+00  1.0884415680890136e+00 6.1799279786427491e-04 0.0000000000000000e+00  1.0923514406401875e+00 2.5852211402295130e-05 0.0000000000000000e+00  1.0922199705393176e+00 -1.7569919632527201e-05 0.0000000000000000e+00  1.0880293854613714e+00 9.8487336028824457e-05 0.0000000000000000e+00  1.0923846609307837e+00 4.7693606199868242e-05 0.0000000000000000e+00  1.0857568578294821e+00 2.2548863597019334e-04 0.0000000000000000e+00  1.0940735233436958e+00 -3.7885828246331066e-03 0.0000000000000000e+00  6.5624835530882930e-01 1.0578386768356293e-07 0.0000000000000000e+00  1.0758467444326709e+00 -1.9133465643574052e-04 0.0000000000000000e+00  1.0895500209013447e+00 -1.5022447765805228e-03 0.0000000000000000e+00  1.1344451435147187e+00 2.0332315827309971e-01 0.0000000000000000e+00  1.0771921273544172e+00 5.0933842784394200e-08 0.0000000000000000e+00  1.0920836885588838e+00 -7.0777794714000784e-04 0.0000000000000000e+00  1.0921641155342328e+00 -7.6612520371016938e-05 0.0000000000000000e+00  1.0923269129987412e+00 -1.0031386203697370e-04 0.0000000000000000e+00  1.0922502545174395e+00 5.7081614628160309e-05 0.0000000000000000e+00  1.0924254919614700e+00 4.2815384526150669e-05 0.0000000000000000e+00  1.1367476837849961e+00 2.4568179854343793e-02 0.0000000000000000e+00  1.0645057893834535e+00 -6.2799828394394198e-03 0.0000000000000000e+00  1.0705170587249384e+00 -3.6255479255539874e-03 0.0000000000000000e+00  1.0923159028156533e+00 1.7719340176316824e-05 0.0000000000000000e+00  1.0923696396385034e+00 1.3643014837386381e-04 0.0000000000000000e+00  1.0919878526299696e+00 -8.4631694697738253e-03 0.0000000000000000e+00  1.0922645519358731e+00 2.3306753889589928e-04 0.0000000000000000e+00  1.0809463709416927e+00 1.2049024159979966e-03 0.0000000000000000e+00  1.0806369691506448e+00 1.0958027296515308e-04 0.0000000000000000e+00  1.0564519881736136e+00 7.5650478833664766e-04 0.0000000000000000e+00  9.4105441506689191e-01 9.2170189594727364e-02 0.0000000000000000e+00  1.0511871313177730e+00 1.6847488631515938e-03 0.0000000000000000e+00  1.0862322005806164e+00 3.8651983577240993e-03 0.0000000000000000e+00  1.0922840304217301e+00 4.0042583553080079e-05 0.0000000000000000e+00  1.0925400659271516e+00 -3.6355396320651381e-04 0.0000000000000000e+00  1.2246046968970017e+00 1.6273297768334472e-01 0.0000000000000000e+00  1.0867752169639706e+00 -5.8642834010158530e-04 0.0000000000000000e+00  1.0916951870888094e+00 2.9689807399640689e-05 0.0000000000000000e+00  1.0922946043030399e+00 -1.3966543378083351e-05 0.0000000000000000e+00  1.0923670210560543e+00 1.6643495492475798e-05 0.0000000000000000e+00  1.2452619420730895e+00 1.0463318057627244e-02 0.0000000000000000e+00  1.0921294254389797e+00 -6.7001260653956690e-06 0.0000000000000000e+00  1.0921808889285285e+00 7.6264047513471288e-06 0.0000000000000000e+00  1.0923400011949080e+00 1.1604651964904917e-04 0.0000000000000000e+00  1.0921940884643218e+00 -1.8308475194492535e-04 0.0000000000000000e+00  1.0517736128305950e+00 7.1601421924659826e-04 0.0000000000000000e+00  1.0510199131973490e+00 -9.9089122922671252e-04 0.0000000000000000e+00  1.0735909831843551e+00 1.1397014302626211e-04 0.0000000000000000e+00  1.0815097147785859e+00 -6.7332367308106167e-04 0.0000000000000000e+00  1.0861855995123304e+00 2.0916005577351887e-04 0.0000000000000000e+00  1.0922635152406415e+00 -7.0918555358826120e-05 0.0000000000000000e+00  1.0628428198069053e+00 -6.9329860456055707e-04 0.0000000000000000e+00  1.0924382288171499e+00 1.7196622881017374e-05 0.0000000000000000e+00  1.0923683103591488e+00 3.6069129507322675e-05 0.0000000000000000e+00  1.2801186564828750e+00 -7.1504353354154074e-02 0.0000000000000000e+00  1.0923160069656304e+00 -1.4939360501438319e-05 0.0000000000000000e+00  1.0923288494740928e+00 -6.7236259356344904e-05 0.0000000000000000e+00  1.0918466074127129e+00 -7.6368498902422465e-04 0.0000000000000000e+00  1.0268068553190777e+00 9.4956441053737617e-05 0.0000000000000000e+00  1.0922938051999214e+00 1.3276203635057015e-04 0.0000000000000000e+00  1.0766172091273833e+00 -1.1391751034986136e-01 0.0000000000000000e+00  1.0770504280456781e+00 6.1512268025262318e-04 0.0000000000000000e+00  7.3696592630454716e-01 -7.7622051828718383e-02 0.0000000000000000e+00  1.2652905499721014e+00 6.3993084117946117e-03 0.0000000000000000e+00  1.0741546353985871e+00 3.8074066010351212e-04 0.0000000000000000e+00  1.0482340362395495e+00 -1.3739070279982283e-03 0.0000000000000000e+00  1.5338039723733670e+00 4.5404690872790426e-01 0.0000000000000000e+00  1.0093265305296737e+00 1.6087422691450146e-01 0.0000000000000000e+00  1.0694002781132392e+00 7.9237540885729340e-04 0.0000000000000000e+00  1.9134226381293002e+00 2.0055572286895068e-01 0.0000000000000000e+00  1.4728654498876870e+00 -5.0307727016580006e-01 0.0000000000000000e+00  9.8397176948055209e-01 -1.7669037332585316e-01 0.0000000000000000e+00  1.0684924129666618e+00 -4.9573417503336037e-04 0.0000000000000000e+00  1.0774968611627349e+00 -1.6059248106039706e-03 0.0000000000000000e+00  1.0639931612687845e+00 5.3078244080233272e-04 0.0000000000000000e+00  1.0764940713714422e+00 2.0315022766889589e-04 0.0000000000000000e+00  1.0922948607505423e+00 -8.2657456180035835e-05 0.0000000000000000e+00  1.0538992295259988e+00 -1.4946581604488971e-02 0.0000000000000000e+00  1.4062435029406344e+00 1.1034560255216613e-06 0.0000000000000000e+00  1.0924173954401351e+00 1.0639200140423677e-04 0.0000000000000000e+00  1.0703553591283077e+00 -1.2103360656292395e-03 0.0000000000000000e+00  1.4062427679246439e+00 1.0052172589829297e-06 0.0000000000000000e+00  1.0713322492476052e+00 6.8282251183260010e-04 0.0000000000000000e+00  1.0921723252285078e+00 -1.3358824412770373e-04 0.0000000000000000e+00  1.0516353942420205e+00 6.8288992319908301e-02 0.0000000000000000e+00  1.0921623080986422e+00 8.5737073530470811e-05 0.0000000000000000e+00  7.1331218834395738e-01 9.1704313039501453e-02 0.0000000000000000e+00  1.0923422658422117e+00 8.0755041614916328e-05 0.0000000000000000e+00  1.0639748505586331e+00 1.8208325541384869e-04 0.0000000000000000e+00  1.0591940636733508e+00 1.8753781640860952e-04 0.0000000000000000e+00  9.9561943891521398e-01 1.9203885629909070e-04 0.0000000000000000e+00  1.0924485400140078e+00 5.2937925720156880e-05 0.0000000000000000e+00  9.9764215116024757e-01 -9.9658029883385507e-05 0.0000000000000000e+00  1.0505035808761003e+00 -4.0094559