<?xml version="1.0"?>
<VTKFile type="UnstructuredGrid"  version="0.1"  >
<UnstructuredGrid>
<Piece  NumberOfPoints="2446" NumberOfCells="4585">
<Points>
<DataArray  type="Float64"  NumberOfComponents="3"  format="ascii">0 0.41 0  0 0 0  2.2 0 0  2.2 0.41 0  0.2404508497187474 0.2293892626146237 0  0.25 0.2 0  0.2404508497187474 0.1706107373853764 0  0.2154508497187474 0.1524471741852423 0  0.1845491502812526 0.1524471741852423 0  0.1595491502812526 0.1706107373853764 0  0.15 0.2 0  0.1595491502812526 0.2293892626146237 0  0.1845491502812527 0.2475528258147577 0  0.2154508497187474 0.2475528258147577 0  1.1 0 0  1.1 0.41 0  0 0.205 0  0.55 0 0  0.55 0.41 0  0.275 0 0  0.275 0.41 0  1.65 0.41 0  1.65 0 0  0.8250000000000001 0.41 0  0.8250000000000001 0 0  1.375 0 0  1.375 0.41 0  1.925 0 0  1.925 0.41 0  1.5125 0.205 0  1.7875 0.205 0  0.6875 0.205 0  0.9625000000000001 0.205 0  1.2375 0.205 0  2.2 0.205 0  0.4687002074688797 0.2068568464730291 0  1.99375 0.2152743902439024 0  2.0625 0 0  2.0625 0.41 0  2.2 0.3075 0  0.4125 0 0  0.4125 0.41 0  1.7875 0.41 0  1.375 0.1486128048780488 0  1.5125 0 0  1.7875 0 0  1.5125 0.41 0  0.8250000000000001 0.2613871951219511 0  0.9625000000000001 0.41 0  0.9625000000000001 0 0  0.6875 0.41 0  0.6875 0 0  0.1375 0 0  0.1375 0.41 0  1.2375 0 0  1.1 0.1486128048780487 0  1.2375 0.41 0  1.65 0.1486128048780487 0  1.126715909090909 0.2793064024390244 0  1.676715909090909 0.2793064024390244 0  0.8517159090909092 0.1306935975609756 0  1.348284090909091 0.2793064024390244 0  0.34375 0.3032389320646208 0  1.894702181800738 0.1282910975492754 0  2.092797818199262 0.1282910975492754 0  1.85625 0.3075 0  0.61875 0.3075 0  0.61875 0.1025 0  0.3648540804333487 0.1240075933101478 0  0 0.3075 0  0 0.1025 0  2.099172119769978 0.25625 0  0.48125 0.09238439620688085 0  0.5781001037344399 0.2059284232365146 0  0.48125 0.3196743479159776 0  0.7265881057911006 0.3055240343720796 0  1.99375 0.08395950269330846 0  1.459960956013612 0.3075 0  1.569025960719943 0.2986889805672169 0  0.75625 0.08213100772579164 0  1.03125 0.3278689922742084 0  0.923871252904788 0.3078247185783941 0  1.959375 0.3126371951219512 0  1.749222215368287 0.1025 0  1.275777784631713 0.1025 0  2.2 0.1025 0  1.225938124459196 0.3075 0  1.550777784631713 0.1025 0  1.000777784631713 0.1025 0  1.44375 0.07430640243902442 0  1.16875 0.07430640243902437 0  1.899250267340833 0.2229966846119207 0  0.1020898364287272 0.3140258291809757 0  1.766482954545455 0.2934032012195123 0  0.3405058858996321 0.2119987970531874 0  0.7710785630958338 0.1710968191298857 0  1.046078563095834 0.2389031808701144 0  0.2 0.3400647632937836 0  1.421109702350723 0.2261157654379721 0  0.2800464974185557 0.08982544815605742 0  0.098916018031319 0.09171660955420841 0  2.13125 0 0  2.118919042110979 0.3422084711244843 0  1.30625 0.41 0  0.89375 0 0  1.597888256393107 0.2173787389261347 0  0.20625 0 0  1.829299675393195 0.07400700849299596 0  1.71875 0.41 0  1.16875 0.41 0  2.038220665644273 0.332420740103091 0  0.34375 0 0  0.417496017710808 0.2696595573092803 0  0.2 0.07687845740457822 0  0.9295982307099278 0.1343158415898188 0  0.07390688010811153 0.1697064032433452 0  0.5238366813727013 0.2578302467013575 0  0.05452951551825875 0.25625 0  0.5229630068078351 0.1548816096928243 0  1.452769549894695 0.1548122580621249 0  1.369219062229598 0.07430640243902442 0  1.30625 0 0  0.8504409521244898 0.3356935975609756 0  0.8821881244591965 0.205 0  1.720943423819132 0.1714577452753128 0  1.157188124459196 0.205 0  1.094219062229598 0.07430640243902437 0  1.03125 0 0  1.304056576180868 0.1714577452753128 0  1.67579304192913 0.07430640243902437 0  0.2751941921308361 0.3346083473122598 0  1.209670467133757 0.1362100266964769 0  1.025335513626278 0.1700681449722324 0  0.7562500000000001 0.41 0  1.58125 0 0  0.7567170593862014 0.2409196493502535 0  0.6926714215682891 0.1272249611432207 0  0.4139715849905988 0.3397932387114203 0  0.9840787304190477 0.2717749043358119 0  0.06875000000000001 0.41 0  0 0.35875 0  0.9281250000000001 0.06276726142697993 0  0.5507396469029935 0.3219409231578227 0  0.5504468037989405 0.09136885600634273 0  1.58125 0.41 0  1.631724228912893 0.3381867502687533 0  1.825608881788174 0.14499488549201 0  1.85625 0 0  1.44375 0 0  1.44375 0.41 0  1.85625 0.41 0  2.13125 0.41 0  0.7562500000000001 0 0  0.89375 0.41 0  0.4812500000000001 0 0  0.34375 0.41 0  0.4812500000000001 0.41 0  0.20625 0.41 0  0.06875000000000001 0 0  1.16875 0 0  0.61875 0 0  0.61875 0.41 0  1.03125 0.41 0  1.71875 0 0  1.99375 0 0  1.99375 0.41 0  1.340625 0.3489494290853124 0  1.134375 0.3489494290853123 0  1.700180620188976 0.3438659752031281 0  2.135782184673599 0.07126652247502523 0  1.668441847249787 0.2129203728327609 0  1.295782514339747 0.2378437748815763 0  0.8233075729931248 0.06842334294821524 0  1.409375 0.3520314716057996 0  0.403505597322782 0.182067236678212 0  0.378125 0.05794951541303489 0  0.3043468223249023 0.1518321115979534 0  2.129248544730567 0.1906135162504124 0  2.060771381434487 0.1989445750470348 0  2.013252586573865 0.1496169464686054 0  1.942766402200229 0.1734448904596831 0  1.895522487186454 0.06076163953489683 0  2.069553871656643 0.06605731020975725 0  1.274680914880868 0.3520219391081363 0  1.614713220494657 0.09473434380863296 0  0.7899021319497519 0.3149123934144827 0  0.69518737419149 0.0634051089053758 0  0.2971740475496061 0.2592172353407536 0  1.72990325744076 0.2380068107952482 0  1.356580098625191 0.2120393231351682 0  2.034370752044885 0.2668681600792073 0  1.51768709249349 0.3426260931494756 0  1.561883724969884 0.1650446847858835 0  1.197344062229598 0.2523725417393646 0  1.804085235518364 0.3468178408964637 0  1.817887819205233 0.2589243285818559 0  1.905897727272727 0.3485060975609756 0  0.6719798073392919 0.2688965171178177 0  0 0.05125 0  0.653125 0.35875 0  0.6396896119294488 0.1627615407790282 0  0.4274150154087412 0.1242548552168279 0  1.192836486056382 0.3562350748565544 0  0.8279124365364005 0.183856489168822 0  1.097485222388854 0.2083571153401724 0  1.28257088594801 0.2944411014911587 0  1.474860187679412 0.2504218616229368 0  1.406767003493824 0.2829282258560709 0  0.446875 0.04619219810344041 0  0.515625 0.04585361801037557 0  0.592043440706648 0.05125 0  1.845656689180403 0.1998310418452388 0  2.144958525570388 0.2909790873294231 0  0.6171090763650112 0.2492366900333857 0  2.2 0.15375 0  0.5145586920831158 0.3648371739579888 0  1.57794966442982 0.3540357145964566 0  0.721875 0.3633107922168974 0  0.0496154796471391 0.333125 0  0.5843750000000001 0.3662560860076676 0  0.5810878747760798 0.1474002776121195 0  1.508991196088596 0.1421783375065625 0  0.8840670607017558 0.2640994375393898 0  0.09776612425612034 0.2204896805326566 0  1.50436820029908 0.06143401634903343 0  1.223857000523521 0.0823554862453532 0  1.153316824384777 0.1289850171317837 0  2.148922302309752 0.1258841779285271 0  0.309375 0.04312325590431198 0  1.621993280276081 0.2841214267927899 0  1.550118654119087 0.2461998729100966 0  1.327182649291491 0.1216967252533594 0  1.051977450479407 0.1221382572915816 0  1.753125 0.04556020050186112 0  1.271875 0.04556020050186116 0  0.9816084133102366 0.05126138213476004 0  1.039051841454368 0.0572224914831029 0  0.9719230514536006 0.3480477870845102 0  1.94956388244759 0.1180512551534177 0  1.949997712993411 0.04965831614304109 0  1.771961817615021 0.1530278789497521 0  1.909246823951428 0.2812757146784527 0  0.2459536687882397 0.04668633953831142 0  1.948575539857022 0.2445328248721197 0  1.697271520964565 0.1233917627620729 0  0.7964897648514618 0.1211426571931604 0  1.065625 0.3689344961371042 0  1.085849084308977 0.3170853572226867 0  0.4702981435440001 0.260434880697798 0  1.577403511714593 0.05463601888079143 0  0.05622663515370135 0.05493816910862376 0  0.3267207591099919 0.3566194660323104 0  0.9003051618565143 0.3564049499960621 0  1.751571320346033 0.3651102912045228 0  0.1583785085108421 0.2994699345738728 0  0.1455283439499995 0.3542795598723423 0  2.2 0.35875 0  0.2347662494194072 0.298325008655211 0  0.1527284455616188 0.1065771775690181 0  0.1382139529076665 0.05427454456341477 0  0.8749341636311069 0.05110114999892954 0  0.643661668713109 0.05693499781019222 0  1.466879772203159 0.3611261772912453 0  1.990280163552011 0.3564754268533217 0  1.17471064520912 0.2990917256188288 0  0.5202693090594349 0.206382495511728 0  0 0.25625 0  2.2 0.25625 0  2.2 0.05125 0  0 0.15375 0  1.853978576207987 0.35875 0  0.9787513713939683 0.1487523696999336 0  0.240625 0.3722153812029779 0  1.515638456102889 0.2882700110184686 0  0.09048297387599738 0.3637717362208066 0  2.150453692751374 0.2387066338105111 0  1.323782677156475 0.04897634338873398 0  0.8074131292871642 0.3624701995505916 0  1.409375 0.03715320121951221 0  1.406484531114799 0.1087852750766809 0  1.134375 0.03715320121951218 0  1.627401732573545 0.04552157221025036 0  0.1170173172005315 0.1427610859166811 0  2.045405893604797 0.1105340662939892 0  1.255408269734577 0.1577307500159216 0  2.028125 0.03707597992059326 0  0.4743610090857199 0.1421513964721819 0  0.9354010469015898 0.250631300585664 0  0.04420832937638274 0.128125 0  0.8922386349349938 0.0992956419364831 0  0.1197849154434487 0.2663398672460083 0  1.248258025468107 0.2565907092181813 0  0.3746885856929528 0.370723531618974 0  1.203125 0.0366132337404304 0  0.5724622277005015 0.2751253816079333 0  0.3365425205162783 0.08395777655057959 0  2.072662025974815 0.2975086504196739 0  0.4581080832182547 0.3648371739579888 0  0.3874522734668214 0.2295447548840689 0  0.7827853612484443 0.04106550386289586 0  1.887722846421017 0.1760882698830035 0  1.472640588990488 0.1118278026240017 0  1.865937103925594 0.2604137786483804 0  1.463913572748262 0.2030442564990043 0  1.376426316059077 0.3186741374914345 0  0.6641993820150034 0.3141688596240831 0  0.2943117490824315 0.2130987422685822 0  0.3478153998082709 0.1666571081082676 0  0.3427990510599805 0.2575950027870776 0  0.7997118993855807 0.2216171933356366 0  
[...]
<PointData  Vectors="f_31"> 
<DataArray  type="Float64"  Name="f_31"  NumberOfComponents="3" format="ascii">2.2448509402658225e-06 4.1560533890534585e-08 0.0000000000000000e+00  -2.3058963274941634e-06 -2.0503882298918369e-08 0.0000000000000000e+00  3.7106520179778680e-06 -1.3363086237740620e-09 0.0000000000000000e+00  -1.6134098111568544e-05 -1.1951193376291910e-08 0.0000000000000000e+00  -3.2668191659691528e-06 -2.7880393184236981e-06 0.0000000000000000e+00  2.1098782690913927e-07 -1.8752070827324355e-05 0.0000000000000000e+00  3.4467302796066101e-06 -9.5930167419474698e-06 0.0000000000000000e+00  -7.1875566696802927e-06 4.6764715591297780e-06 0.0000000000000000e+00  -1.1849130984260332e-06 5.7725938671206356e-06 0.0000000000000000e+00  1.0697005759371579e-05 -1.9866595097443196e-06 0.0000000000000000e+00  -2.8072291100279385e-07 -4.3362834505149149e-06 0.0000000000000000e+00  -1.7574229777177843e-05 -3.1083083330625542e-06 0.0000000000000000e+00  4.7322853836141552e-06 8.7368691543731534e-06 0.0000000000000000e+00  -1.1582631784371548e-05 6.3354296969064469e-08 0.0000000000000000e+00  -2.4158603080779402e-06 9.0434881735388864e-09 0.0000000000000000e+00  1.3115648730603293e-07 -6.7372907433436994e-09 0.0000000000000000e+00  1.5000043794273847e+00 -2.2329787869117623e-06 0.0000000000000000e+00  4.3967320695894951e-06 -3.3196977473428100e-06 0.0000000000000000e+00  8.4477606793514467e-06 5.4319006318504303e-07 0.0000000000000000e+00  3.3413066945026874e-06 3.7182859597488881e-07 0.0000000000000000e+00  -3.4911285765309709e-06 6.8676989847872291e-08 0.0000000000000000e+00  4.6407121477467887e-07 6.1738619413021357e-10 0.0000000000000000e+00  4.9305290970925092e-07 -1.2846235167201597e-08 0.0000000000000000e+00  -2.9473484043819818e-06 1.0360034770069782e-07 0.0000000000000000e+00  -7.9770972415101543e-06 -4.4932905927408773e-09 0.0000000000000000e+00  -3.6908542562224416e-06 1.4800452065003345e-09 0.0000000000000000e+00  -6.5332654117320615e-07 4.7548135421158276e-09 0.0000000000000000e+00  -2.7689497900292839e-06 1.4104120360551987e-08 0.0000000000000000e+00  -2.0406153997685596e-06 -4.4785078348162274e-09 0.0000000000000000e+00  1.1471306542744821e+00 2.8855210542476164e-05 0.0000000000000000e+00  1.1472524254327208e+00 2.7866915496818749e-05 0.0000000000000000e+00  1.1289510701495480e+00 3.6366507732716949e-02 0.0000000000000000e+00  1.1492349903149250e+00 -4.7872953428802758e-03 0.0000000000000000e+00  1.1468096369970815e+00 -2.4572145899918102e-04 0.0000000000000000e+00  1.1471473800424945e+00 -5.1975624612919529e-05 0.0000000000000000e+00  -1.8282163947703975e-01 -2.5458893251709352e-01 0.0000000000000000e+00  1.1471684791444945e+00 -4.5661946569978950e-05 0.0000000000000000e+00  3.7821337997770596e-07 2.3005484503790135e-09 0.0000000000000000e+00  -7.9492269559811258e-07 2.5925656092970139e-09 0.0000000000000000e+00  1.1440397699824720e+00 9.0700217254981972e-06 0.0000000000000000e+00  -4.1376809967082071e-06 4.0859708371460220e-07 0.0000000000000000e+00  3.8940483032395891e-06 -3.8343485372406040e-07 0.0000000000000000e+00  -5.7374419598542757e-06 -9.6550706852432307e-09 0.0000000000000000e+00  1.1470101370407078e+00 7.9130663912050000e-06 0.0000000000000000e+00  3.3833034089363263e-07 -6.0937367561446610e-09 0.0000000000000000e+00  -4.0056963767551900e-06 1.6434340178744548e-08 0.0000000000000000e+00  1.1440580160456330e-06 -6.1538855643655481e-09 0.0000000000000000e+00  1.1942852560050869e+00 1.8727310965435316e-02 0.0000000000000000e+00  -1.3722907107210308e-06 1.0493617032998709e-08 0.0000000000000000e+00  2.5338849295361916e-06 1.4988255388108819e-08 0.0000000000000000e+00  -8.2827340274648002e-07 4.0926462166947613e-08 0.0000000000000000e+00  -3.8875968323205971e-06 1.2491231516606877e-06 0.0000000000000000e+00  -3.5612176072673379e-06 6.2556678755107148e-07 0.0000000000000000e+00  -5.8074173765316165e-06 -5.3770761399987870e-07 0.0000000000000000e+00  3.7200899728595104e-07 -2.1216826915048308e-10 0.0000000000000000e+00  1.1463870207531623e+00 -1.0315862758973090e-03 0.0000000000000000e+00  -1.4642840633160805e-06 -5.2833333602947156e-09 0.0000000000000000e+00  1.1473041087135714e+00 5.4451701064367885e-05 0.0000000000000000e+00  1.1473756415326524e+00 -5.3907279131301493e-04 0.0000000000000000e+00  1.1469078604902119e+00 7.2738998739606188e-05 0.0000000000000000e+00  1.1431652651791611e+00 -3.1250668413240597e-02 0.0000000000000000e+00  1.1469338057262686e+00 -3.7285877686056001e-05 0.0000000000000000e+00  2.0450567133088433e+00 -8.7762777616866017e-02 0.0000000000000000e+00  1.1469089404535981e+00 -6.8544037616389278e-05 0.0000000000000000e+00  1.1470551964600373e+00 -1.3855230324287028e-04 0.0000000000000000e+00  1.1438204245217705e+00 4.2442430592211997e-05 0.0000000000000000e+00  1.3031082845710400e+00 -1.0594300403273122e-02 0.0000000000000000e+00  1.3087566709203957e+00 8.1033637489465266e-02 0.0000000000000000e+00  1.5168652523876709e+00 1.4480469959389303e-01 0.0000000000000000e+00  1.1249989968894778e+00 -9.0514138110746487e-07 0.0000000000000000e+00  1.1249902273161523e+00 -5.9456684370648762e-07 0.0000000000000000e+00  1.1470501300143026e+00 -5.7169155384248729e-05 0.0000000000000000e+00  1.6496558542051216e+00 3.4360713256770287e-01 0.0000000000000000e+00  6.8679209170718114e-01 1.8055349568300304e-02 0.0000000000000000e+00  1.5022202590824958e+00 -3.0524408379564544e-01 0.0000000000000000e+00  1.1987995369630899e+00 9.1631755012048274e-02 0.0000000000000000e+00  1.1329337798864549e+00 -1.5238807133957513e-05 0.0000000000000000e+00  1.1445102319546394e+00 -1.6531964520096565e-05 0.0000000000000000e+00  1.1457020025982794e+00 6.6583751040050188e-05 0.0000000000000000e+00  1.0132317233157622e+00 -1.4656495790431404e-01 0.0000000000000000e+00  1.1313004919977721e+00 -2.7121247222536705e-04 0.0000000000000000e+00  1.1470060782733316e+00 2.8160636535283444e-03 0.0000000000000000e+00  1.1427167007225105e+00 -4.1029890634753214e-05 0.0000000000000000e+00  1.1438632270692028e+00 -2.5193949165095255e-04 0.0000000000000000e+00  1.1444535582294351e+00 -1.1225940574279713e-04 0.0000000000000000e+00  1.1439920649665132e+00 -3.1223689187404204e-04 0.0000000000000000e+00  1.1446062219428466e+00 -9.3906839481699086e-05 0.0000000000000000e+00  1.1443797202332244e+00 1.4703978127519245e-04 0.0000000000000000e+00  1.1412239603122343e+00 -2.4181137735821228e-03 0.0000000000000000e+00  1.1172836105624850e+00 3.2143869033690225e-05 0.0000000000000000e+00  1.1167043927353812e+00 -8.7909261526849711e-05 0.0000000000000000e+00  1.1471466842882612e+00 -1.5650080481072321e-05 0.0000000000000000e+00  1.1895350430675582e+00 2.5971568799204953e-01 0.0000000000000000e+00  1.1462002574484389e+00 1.2053333470715464e-04 0.0000000000000000e+00  -5.1115686908210722e-01 1.2662670761658545e-01 0.0000000000000000e+00  1.1930344877383543e+00 -6.0779685849971059e-02 0.0000000000000000e+00  1.1479866222530031e+00 -1.5425572160668011e-03 0.0000000000000000e+00  1.4084147386980621e+00 2.3489473046521578e-01 0.0000000000000000e+00  1.1469206549515449e+00 -2.0919833683780058e-05 0.0000000000000000e+00  1.8720626366211193e+00 -1.0865485186920187e-01 0.0000000000000000e+00  1.1388456433295602e+00 -2.4589623490832285e-01 0.0000000000000000e+00  -5.2714541703162006e-07 9.7108151330612021e-09 0.0000000000000000e+00  1.0985150495152149e+00 1.6933312358670478e-04 0.0000000000000000e+00  -1.6466084589210793e-06 8.5200825793890375e-09 0.0000000000000000e+00  -6.6535926871209042e-06 -4.5093029440929583e-09 0.0000000000000000e+00  1.1472247054293974e+00 2.2021808866369424e-05 0.0000000000000000e+00  2.2404421665694980e-06 -5.1009867986074426e-07 0.0000000000000000e+00  1.1160336081150382e+00 -4.0850481018489936e-05 0.0000000000000000e+00  -2.3282331374240072e-06 1.7515663577393711e-10 0.0000000000000000e+00  -1.9336618412690284e-06 3.9861180388260444e-09 0.0000000000000000e+00  1.1237019085784323e+00 -2.6938357796927816e-05 0.0000000000000000e+00  -2.4167984516792703e-06 1.5095219827279240e-07 0.0000000000000000e+00  1.7169590480391734e+00 -4.3075402854057593e-01 0.0000000000000000e+00  1.5183733881577122e+00 -2.7970415522153552e-01 0.0000000000000000e+00  1.1433392210442717e+00 -9.5326172983494460e-03 0.0000000000000000e+00  1.3350385761012658e+00 -1.0006941295055713e-01 0.0000000000000000e+00  1.4773617275590607e+00 -3.4804469065460952e-01 0.0000000000000000e+00  1.3740224668295535e+00 1.3122029029943416e-01 0.0000000000000000e+00  1.3032765254771690e+00 3.5510302632103496e-01 0.0000000000000000e+00  1.1469655118179258e+00 3.5867395304687605e-05 0.0000000000000000e+00  1.1162662207044520e+00 -1.7358768876811568e-04 0.0000000000000000e+00  -6.0773329783905908e-07 1.6580148270206778e-09 0.0000000000000000e+00  1.1052834914471990e+00 2.0784100467895465e-02 0.0000000000000000e+00  1.1574433717962820e+00 -1.2588464132786848e-02 0.0000000000000000e+00  1.1471824380896911e+00 7.5626422044325605e-05 0.0000000000000000e+00  1.1468081236804595e+00 -5.7769116511511719e-04 0.0000000000000000e+00  1.1162534997330844e+00 -2.8601715627461565e-04 0.0000000000000000e+00  -2.6824942066756092e-06 7.3926145930442597e-09 0.0000000000000000e+00  1.1469297068651216e+00 -8.4483653463926603e-05 0.0000000000000000e+00  1.1165755502508485e+00 3.5982188651699956e-05 0.0000000000000000e+00  1.6789429176349895e+00 8.8861076461296429e-02 0.0000000000000000e+00  1.1467868911416039e+00 -2.3078176474929479e-04 0.0000000000000000e+00  1.1465255665694951e+00 -2.7074704115955350e-03 0.0000000000000000e+00  -9.4423544186188872e-06 -1.7233020357715108e-06 0.0000000000000000e+00  -1.2851221185857220e-05 -2.1632232566588611e-09 0.0000000000000000e+00  1.3130478966600003e+00 -1.4054384889337633e-02 0.0000000000000000e+00  1.3112913356318714e+00 -5.4563062550587307e-02 0.0000000000000000e+00  1.5492386383824888e+00 -2.3130793811065470e-01 0.0000000000000000e+00  1.1496290414872403e+00 -1.2361514741651535e-03 0.0000000000000000e+00  -3.0811238451561658e-06 -2.9486083869402127e-07 0.0000000000000000e+00  6.5625066969779366e-01 -2.6636786978881269e-07 0.0000000000000000e+00  1.0703672147672063e+00 -2.9874833889578707e-03 0.0000000000000000e+00  1.2865587064254520e+00 -1.4197560992629982e-01 0.0000000000000000e+00  1.4185897731119392e+00 2.5264655385772045e-01 0.0000000000000000e+00  -4.5511472321287894e-06 8.3042708485053315e-09 0.0000000000000000e+00  1.1111625871084663e+00 8.6028482099540719e-05 0.0000000000000000e+00  1.1471659747014227e+00 -9.1931146574535127e-06 0.0000000000000000e+00  -3.4047619656140989e-06 1.1642608378229383e-09 0.0000000000000000e+00  -1.0084759203001376e-05 4.9866244115449942e-09 0.0000000000000000e+00  -3.9770267035901238e-06 -1.6798888411288760e-08 0.0000000000000000e+00  1.7149240703360016e-06 1.0458237497815399e-08 0.0000000000000000e+00  -2.1457373537692702e-06 -5.4512011759013460e-09 0.0000000000000000e+00  -1.1762023133824848e-05 1.5109931916711529e-06 0.0000000000000000e+00  7.3054011040377050e-07 1.0201860714269679e-07 0.0000000000000000e+00  -3.5411874137108055e-06 -1.1853733341744538e-07 0.0000000000000000e+00  8.2855040485525433e-06 -7.3783810481621630e-08 0.0000000000000000e+00  1.0516822742564336e-06 6.5519876448839523e-07 0.0000000000000000e+00  -4.2955252884675275e-06 -3.4682344218161649e-07 0.0000000000000000e+00  1.0237202683870342e-06 1.3972989831991116e-07 0.0000000000000000e+00  -1.3695491409956560e-07 3.3358513594967732e-09 0.0000000000000000e+00  1.1120076108102576e-05 -2.5558167561787915e-07 0.0000000000000000e+00  -1.2395510071353650e-07 1.2679346364132877e-07 0.0000000000000000e+00  -8.3027604110948508e-07 -1.7082911243841542e-08 0.0000000000000000e+00  -7.1970556937519673e-06 -9.3013610739634688e-09 0.0000000000000000e+00  -2.1175118948891934e-06 1.0958896811058340e-09 0.0000000000000000e+00  -6.4204859359402710e-07 5.9934726795753403e-09 0.0000000000000000e+00  1.0697470748832871e+00 9.1045219216666961e-05 0.0000000000000000e+00  1.0705178466569962e+00 -2.0506546408344682e-04 0.0000000000000000e+00  1.0923589121462856e+00 1.8837345715630346e-04 0.0000000000000000e+00  1.1088585686319969e+00 -2.4868479457669924e-04 0.0000000000000000e+00  1.1472304837324387e+00 7.6999251377292652e-05 0.0000000000000000e+00  1.1469252708785302e+00 -1.1798728900292312e-04 0.0000000000000000e+00  1.0550882795906864e+00 -3.7459056068524600e-02 0.0000000000000000e+00  1.0531829728519020e+00 2.4469263099065960e-05 0.0000000000000000e+00  -6.0280262721301148e-01 2.5009351724233724e-02 0.0000000000000000e+00  1.5706999749001263e+00 1.3512606004117253e-01 0.0000000000000000e+00  2.5559196495710734e-01 -8.5681721477053122e-02 0.0000000000000000e+00  1.1471448716985071e+00 -6.7675688182634392e-05 0.0000000000000000e+00  1.1472465762227178e+00 -6.5275282570547569e-05 0.0000000000000000e+00  1.1472462537039927e+00 -6.7343452092969474e-05 0.0000000000000000e+00  1.1471867898227075e+00 -2.9454236858931380e-05 0.0000000000000000e+00  1.0679514612236498e+00 2.7561482749776009e-05 0.0000000000000000e+00  1.0919907422177237e+00 -1.2946500481916413e-04 0.0000000000000000e+00  1.0538158295868685e+00 4.2311705222812143e-05 0.0000000000000000e+00  1.1413874385420848e+00 4.2815511599970615e-05 0.0000000000000000e+00  1.1225122218710908e+00 1.0243159992057220e-01 0.0000000000000000e+00  8.3404838566075090e-01 -1.1322986367887662e-01 0.0000000000000000e+00  6.6776570738745600e-01 9.9974481625721992e-02 0.0000000000000000e+00  1.1471491898018318e+00 5.4370510301997798e-05 0.0000000000000000e+00  1.1468382717625543e+00 -6.7416240914593633e-05 0.0000000000000000e+00  1.1470455789178191e+00 -1.8345181102211821e-05 0.0000000000000000e+00  1.0971442801095233e+00 4.8246141884204857e-05 0.0000000000000000e+00  1.1471756156651658e+00 7.6575465535527612e-05 0.0000000000000000e+00  1.1471276203642675e+00 -3.0475791237736860e-04 0.0000000000000000e+00  1.0808192528098732e+00 3.7106495712004709e-05 0.0000000000000000e+00  1.1470066939579351e+00 3.5146022994912437e-05 0.0000000000000000e+00  1.0727433609796686e+00 9.0350456214403129e-05 0.0000000000000000e+00  1.4719997736529922e+00 9.6613373970060711e-03 0.0000000000000000e+00  6.5624823069882066e-01 -2.8610398023687058e-07 0.0000000000000000e+00  7.4300076274716298e-01 6.5628364833906327e-02 0.0000000000000000e+00  1.4202660516420444e+00 1.3763446418927716e-01 0.0000000000000000e+00  1.6711662701071883e+00 3.3151549939986408e-01 0.0000000000000000e+00  1.0260237768361751e+00 -9.0468572718094969e-06 0.0000000000000000e+00  1.1627723722082668e+00 -2.9051954644949141e-02 0.0000000000000000e+00  1.1469612927486739e+00 -1.1255428324545684e-03 0.0000000000000000e+00  1.1465275790513478e+00 -5.8850379956902096e-05 0.0000000000000000e+00  1.1469270094598736e+00 -1.6821386275237589e-05 0.0000000000000000e+00  1.1468721397390838e+00 -5.7411503553786399e-05 0.0000000000000000e+00  1.2074694089039897e+00 1.7210047899239297e-01 0.0000000000000000e+00  8.5446748619055890e-01 1.2717653780945506e-01 0.0000000000000000e+00  7.1568229779367121e-01 1.8967064387426260e-02 0.0000000000000000e+00  1.1471971464633528e+00 2.8310561779460829e-06 0.0000000000000000e+00  1.1464534541627196e+00 -1.2762380392074320e-05 0.0000000000000000e+00  1.4361253177282371e+00 -3.4476030920012023e-02 0.0000000000000000e+00  1.1470042195552621e+00 -6.0577707884146387e-05 0.0000000000000000e+00  7.8367695656265113e-01 -9.2452891112606767e-02 0.0000000000000000e+00  1.0415227249638055e+00 5.8422841114491734e-05 0.0000000000000000e+00  7.8336620783868538e-01 7.4321849095515313e-02 0.0000000000000000e+00  9.4228181495309127e-01 9.5376685612155426e-02 0.0000000000000000e+00  6.2281889618066810e-01 -2.7095057816193798e-04 0.0000000000000000e+00  1.5309849341092634e+00 2.9345553538689950e-01 0.0000000000000000e+00  1.1470707327939986e+00 1.0423275552640830e-04 0.0000000000000000e+00  1.1608557451303636e+00 2.1168038200182985e-03 0.0000000000000000e+00  1.2243459830368437e+00 1.7830493842819531e-01 0.0000000000000000e+00  1.0726825806134415e+00 6.6315612878866470e-07 0.0000000000000000e+00  1.1305962805366236e+00 -1.4273430515486675e-04 0.0000000000000000e+00  1.1465427730764002e+00 -4.3083566226079765e-04 0.0000000000000000e+00  1.1469509845657988e+00 -2.1850066670985881e-04 0.0000000000000000e+00  1.4094143877507483e+00 1.5232772650889154e-02 0.0000000000000000e+00  1.1467878461362617e+00 4.8813454363183920e-05 0.0000000000000000e+00  1.1469547430970417e+00 -1.8345729718068555e-05 0.0000000000000000e+00  1.1466902996898201e+00 -3.9205140999024917e-05 0.0000000000000000e+00  1.1451831423407306e+00 -1.5889959262986825e-03 0.0000000000000000e+00  9.5386187871284911e-01 -3.0122597887757125e-04 0.0000000000000000e+00  9.5379089822162133e-01 -2.6845434430117378e-04 0.0000000000000000e+00  1.0057632534517413e+00 -6.2693149505131738e-04 0.0000000000000000e+00  1.0473497245291219e+00 -2.5042555441877540e-04 0.0000000000000000e+00  1.0754515868081196e+00 -2.7513965192593748e-06 0.0000000000000000e+00  1.1464592652059695e+00 -6.1501268531734331e-05 0.0000000000000000e+00  9.9171854519807590e-01 -1.5960106611835950e-04 0.0000000000000000e+00  1.1472725158474031e+00 9.4376364753344674e-06 0.0000000000000000e+00  1.1467984097988608e+00 -2.5606803177911473e-05 0.0000000000000000e+00  1.3409569961735068e+00 -9.3693116144536195e-02 0.0000000000000000e+00  1.1471425655007461e+00 -4.7000288256333507e-05 0.0000000000000000e+00  1.1469297160765703e+00 5.8105920358103868e-06 0.0000000000000000e+00  1.1510557966367674e+00 -9.0292109494582953e-02 0.0000000000000000e+00  9.0208739133796045e-01 -2.5531684629486411e-04 0.0000000000000000e+00  1.1414698396249070e+00 -4.3078135957447114e-04 0.0000000000000000e+00  1.5439656859030400e+00 -5.3224066181588570e-01 0.0000000000000000e+00  1.0312188557977207e+00 2.1101528693256402e-04 0.0000000000000000e+00  7.3768990143792523e-01 -7.7624071321654817e-02 0.0000000000000000e+00  1.4780953351938251e+00 -4.4453512164155051e-02 0.0000000000000000e+00  1.0216708454624657e+00 2.8456200394284649e-03 0.0000000000000000e+00  9.4639532339570942e-01 1.2616826062372848e-04 0.0000000000000000e+00  1.5380256097226017e+00 4.8003269010408078e-01 0.0000000000000000e+00  1.0106431216832990e+00 1.8333262099028946e-01 0.0000000000000000e+00  1.0061403995406690e+00 1.0593907025913632e-04 0.0000000000000000e+00  1.9195712854468583e+00 2.6213542583779115e-01 0.0000000000000000e+00  1.4534162694604549e+00 -5.0773443153402265e-01 0.0000000000000000e+00  9.7418867632417960e-01 -1.9031922387281408e-01 0.0000000000000000e+00  9.9042209221109112e-01 -7.0135785745745593e-03 0.0000000000000000e+00  7.5465339017083211e-01 -6.5411180174157063e-02 0.0000000000000000e+00  9.8621058689998142e-01 3.4681389103528581e-05 0.0000000000000000e+00  1.0245222117464734e+00 5.7611360139008528e-05 0.0000000000000000e+00  1.1462536545650055e+00 -2.6209014833328552e-04 0.0000000000000000e+00  2.2860509662937076e-01 -1.7028868449141557e-01 0.0000000000000000e+00  1.4062434281701786e+00 -1.9972397025396074e-06 0.0000000000000000e+00  1.1471498601752899e+00 5.0276735717245194e-05 0.0000000000000000e+00  1.0069996454584560e+00 -6.7444754464116279e-04 0.0000000000000000e+00  1.4062432026703153e+00 -1.7536133235124871e-06 0.0000000000000000e+00  1.0068466001217180e+00 -2.4718437238702705e-05 0.0000000000000000e+00  1.1453595254905822e+00 -4.8562859706232624e-03 0.0000000000000000e+00  1.1563753594194024e+00 6.4738139933616975e-02 0.0000000000000000e+00  1.1467278293424712e+00 -4.8819159525484553e-05 0.0000000000000000e+00  7.1674205182187190e-01 1.0045370150923970e-01 0.0000000000000000e+00  1.1470613148360991e+00 -7.0505804047436038e-06 0.0000000000000000e+00  9.8729817855036284e-01 -2.5059045032577154e-04 0.0000000000000000e+00  9.3340456718673237e-01 2.9149359448968036e-02 0.0000000000000000e+00  8.4922562293873560e-01 8.8604493191791776e-05 0.0000000000000000e+00  1.1456838836501704e+00 -1.0967311378176785e-05 0.0000000000000000e+00  8.4971413252688222e-01 2.3597485957924021e-06 0.0000000000000000e+00  9.523823455628