<?xml version="1.0"?>
<VTKFile type="UnstructuredGrid"  version="0.1"  >
<UnstructuredGrid>
<Piece  NumberOfPoints="2446" NumberOfCells="4585">
<Points>
<DataArray  type="Float64"  NumberOfComponents="3"  format="ascii">0 0.41 0  0 0 0  2.2 0 0  2.2 0.41 0  0.2404508497187474 0.2293892626146237 0  0.25 0.2 0  0.2404508497187474 0.1706107373853764 0  0.2154508497187474 0.1524471741852423 0  0.1845491502812526 0.1524471741852423 0  0.1595491502812526 0.1706107373853764 0  0.15 0.2 0  0.1595491502812526 0.2293892626146237 0  0.1845491502812527 0.2475528258147577 0  0.2154508497187474 0.2475528258147577 0  1.1 0 0  1.1 0.41 0  0 0.205 0  0.55 0 0  0.55 0.41 0  0.275 0 0  0.275 0.41 0  1.65 0.41 0  1.65 0 0  0.8250000000000001 0.41 0  0.8250000000000001 0 0  1.375 0 0  1.375 0.41 0  1.925 0 0  1.925 0.41 0  1.5125 0.205 0  1.7875 0.205 0  0.6875 0.205 0  0.9625000000000001 0.205 0  1.2375 0.205 0  2.2 0.205 0  0.4687002074688797 0.2068568464730291 0  1.99375 0.2152743902439024 0  2.0625 0 0  2.0625 0.41 0  2.2 0.3075 0  0.4125 0 0  0.4125 0.41 0  1.7875 0.41 0  1.375 0.1486128048780488 0  1.5125 0 0  1.7875 0 0  1.5125 0.41 0  0.8250000000000001 0.2613871951219511 0  0.9625000000000001 0.41 0  0.9625000000000001 0 0  0.6875 0.41 0  0.6875 0 0  0.1375 0 0  0.1375 0.41 0  1.2375 0 0  1.1 0.1486128048780487 0  1.2375 0.41 0  1.65 0.1486128048780487 0  1.126715909090909 0.2793064024390244 0  1.676715909090909 0.2793064024390244 0  0.8517159090909092 0.1306935975609756 0  1.348284090909091 0.2793064024390244 0  0.34375 0.3032389320646208 0  1.894702181800738 0.1282910975492754 0  2.092797818199262 0.1282910975492754 0  1.85625 0.3075 0  0.61875 0.3075 0  0.61875 0.1025 0  0.3648540804333487 0.1240075933101478 0  0 0.3075 0  0 0.1025 0  2.099172119769978 0.25625 0  0.48125 0.09238439620688085 0  0.5781001037344399 0.2059284232365146 0  0.48125 0.3196743479159776 0  0.7265881057911006 0.3055240343720796 0  1.99375 0.08395950269330846 0  1.459960956013612 0.3075 0  1.569025960719943 0.2986889805672169 0  0.75625 0.08213100772579164 0  1.03125 0.3278689922742084 0  0.923871252904788 0.3078247185783941 0  1.959375 0.3126371951219512 0  1.749222215368287 0.1025 0  1.275777784631713 0.1025 0  2.2 0.1025 0  1.225938124459196 0.3075 0  1.550777784631713 0.1025 0  1.000777784631713 0.1025 0  1.44375 0.07430640243902442 0  1.16875 0.07430640243902437 0  1.899250267340833 0.2229966846119207 0  0.1020898364287272 0.3140258291809757 0  1.766482954545455 0.2934032012195123 0  0.3405058858996321 0.2119987970531874 0  0.7710785630958338 0.1710968191298857 0  1.046078563095834 0.2389031808701144 0  0.2 0.3400647632937836 0  1.421109702350723 0.2261157654379721 0  0.2800464974185557 0.08982544815605742 0  0.098916018031319 0.09171660955420841 0  2.13125 0 0  2.118919042110979 0.3422084711244843 0  1.30625 0.41 0  0.89375 0 0  1.597888256393107 0.2173787389261347 0  0.20625 0 0  1.829299675393195 0.07400700849299596 0  1.71875 0.41 0  1.16875 0.41 0  2.038220665644273 0.332420740103091 0  0.34375 0 0  0.417496017710808 0.2696595573092803 0  0.2 0.07687845740457822 0  0.9295982307099278 0.1343158415898188 0  0.07390688010811153 0.1697064032433452 0  0.5238366813727013 0.2578302467013575 0  0.05452951551825875 0.25625 0  0.5229630068078351 0.1548816096928243 0  1.452769549894695 0.1548122580621249 0  1.369219062229598 0.07430640243902442 0  1.30625 0 0  0.8504409521244898 0.3356935975609756 0  0.8821881244591965 0.205 0  1.720943423819132 0.1714577452753128 0  1.157188124459196 0.205 0  1.094219062229598 0.07430640243902437 0  1.03125 0 0  1.304056576180868 0.1714577452753128 0  1.67579304192913 0.07430640243902437 0  0.2751941921308361 0.3346083473122598 0  1.209670467133757 0.1362100266964769 0  1.025335513626278 0.1700681449722324 0  0.7562500000000001 0.41 0  1.58125 0 0  0.7567170593862014 0.2409196493502535 0  0.6926714215682891 0.1272249611432207 0  0.4139715849905988 0.3397932387114203 0  0.9840787304190477 0.2717749043358119 0  0.06875000000000001 0.41 0  0 0.35875 0  0.9281250000000001 0.06276726142697993 0  0.5507396469029935 0.3219409231578227 0  0.5504468037989405 0.09136885600634273 0  1.58125 0.41 0  1.631724228912893 0.3381867502687533 0  1.825608881788174 0.14499488549201 0  1.85625 0 0  1.44375 0 0  1.44375 0.41 0  1.85625 0.41 0  2.13125 0.41 0  0.7562500000000001 0 0  0.89375 0.41 0  0.4812500000000001 0 0  0.34375 0.41 0  0.4812500000000001 0.41 0  0.20625 0.41 0  0.06875000000000001 0 0  1.16875 0 0  0.61875 0 0  0.61875 0.41 0  1.03125 0.41 0  1.71875 0 0  1.99375 0 0  1.99375 0.41 0  1.340625 0.3489494290853124 0  1.134375 0.3489494290853123 0  1.700180620188976 0.3438659752031281 0  2.135782184673599 0.07126652247502523 0  1.668441847249787 0.2129203728327609 0  1.295782514339747 0.2378437748815763 0  0.8233075729931248 0.06842334294821524 0  1.409375 0.3520314716057996 0  0.403505597322782 0.182067236678212 0  0.378125 0.05794951541303489 0  0.3043468223249023 0.1518321115979534 0  2.129248544730567 0.1906135162504124 0  2.060771381434487 0.1989445750470348 0  2.013252586573865 0.1496169464686054 0  1.942766402200229 0.1734448904596831 0  1.895522487186454 0.06076163953489683 0  2.069553871656643 0.06605731020975725 0  1.274680914880868 0.3520219391081363 0  1.614713220494657 0.09473434380863296 0  0.7899021319497519 0.3149123934144827 0  0.69518737419149 0.0634051089053758 0  0.2971740475496061 0.2592172353407536 0  1.72990325744076 0.2380068107952482 0  1.356580098625191 0.2120393231351682 0  2.034370752044885 0.2668681600792073 0  1.51768709249349 0.3426260931494756 0  1.561883724969884 0.1650446847858835 0  1.197344062229598 0.2523725417393646 0  1.804085235518364 0.3468178408964637 0  1.817887819205233 0.2589243285818559 0  1.905897727272727 0.3485060975609756 0  0.6719798073392919 0.2688965171178177 0  0 0.05125 0  0.653125 0.35875 0  0.6396896119294488 0.1627615407790282 0  0.4274150154087412 0.1242548552168279 0  1.192836486056382 0.3562350748565544 0  0.8279124365364005 0.183856489168822 0  1.097485222388854 0.2083571153401724 0  1.28257088594801 0.2944411014911587 0  1.474860187679412 0.2504218616229368 0  1.406767003493824 0.2829282258560709 0  0.446875 0.04619219810344041 0  0.515625 0.04585361801037557 0  0.592043440706648 0.05125 0  1.845656689180403 0.1998310418452388 0  2.144958525570388 0.2909790873294231 0  0.6171090763650112 0.2492366900333857 0  2.2 0.15375 0  0.5145586920831158 0.3648371739579888 0  1.57794966442982 0.3540357145964566 0  0.721875 0.3633107922168974 0  0.0496154796471391 0.333125 0  0.5843750000000001 0.3662560860076676 0  0.5810878747760798 0.1474002776121195 0  1.508991196088596 0.1421783375065625 0  0.8840670607017558 0.2640994375393898 0  0.09776612425612034 0.2204896805326566 0  1.50436820029908 0.06143401634903343 0  1.223857000523521 0.0823554862453532 0  1.153316824384777 0.1289850171317837 0  2.148922302309752 0.1258841779285271 0  0.309375 0.04312325590431198 0  1.621993280276081 0.2841214267927899 0  1.550118654119087 0.2461998729100966 0  1.327182649291491 0.1216967252533594 0  1.051977450479407 0.1221382572915816 0  1.753125 0.04556020050186112 0  1.271875 0.04556020050186116 0  0.9816084133102366 0.05126138213476004 0  1.039051841454368 0.0572224914831029 0  0.9719230514536006 0.3480477870845102 0  1.94956388244759 0.1180512551534177 0  1.949997712993411 0.04965831614304109 0  1.771961817615021 0.1530278789497521 0  1.909246823951428 0.2812757146784527 0  0.2459536687882397 0.04668633953831142 0  1.948575539857022 0.2445328248721197 0  1.697271520964565 0.1233917627620729 0  0.7964897648514618 0.1211426571931604 0  1.065625 0.3689344961371042 0  1.085849084308977 0.3170853572226867 0  0.4702981435440001 0.260434880697798 0  1.577403511714593 0.05463601888079143 0  0.05622663515370135 0.05493816910862376 0  0.3267207591099919 0.3566194660323104 0  0.9003051618565143 0.3564049499960621 0  1.751571320346033 0.3651102912045228 0  0.1583785085108421 0.2994699345738728 0  0.1455283439499995 0.3542795598723423 0  2.2 0.35875 0  0.2347662494194072 0.298325008655211 0  0.1527284455616188 0.1065771775690181 0  0.1382139529076665 0.05427454456341477 0  0.8749341636311069 0.05110114999892954 0  0.643661668713109 0.05693499781019222 0  1.466879772203159 0.3611261772912453 0  1.990280163552011 0.3564754268533217 0  1.17471064520912 0.2990917256188288 0  0.5202693090594349 0.206382495511728 0  0 0.25625 0  2.2 0.25625 0  2.2 0.05125 0  0 0.15375 0  1.853978576207987 0.35875 0  0.9787513713939683 0.1487523696999336 0  0.240625 0.3722153812029779 0  1.515638456102889 0.2882700110184686 0  0.09048297387599738 0.3637717362208066 0  2.150453692751374 0.2387066338105111 0  1.323782677156475 0.04897634338873398 0  0.8074131292871642 0.3624701995505916 0  1.409375 0.03715320121951221 0  1.406484531114799 0.1087852750766809 0  1.134375 0.03715320121951218 0  1.627401732573545 0.04552157221025036 0  0.1170173172005315 0.1427610859166811 0  2.045405893604797 0.1105340662939892 0  1.255408269734577 0.1577307500159216 0  2.028125 0.03707597992059326 0  0.4743610090857199 0.1421513964721819 0  0.9354010469015898 0.250631300585664 0  0.04420832937638274 0.128125 0  0.8922386349349938 0.0992956419364831 0  0.1197849154434487 0.2663398672460083 0  1.248258025468107 0.2565907092181813 0  0.3746885856929528 0.370723531618974 0  1.203125 0.0366132337404304 0  0.5724622277005015 0.2751253816079333 0  0.3365425205162783 0.08395777655057959 0  2.072662025974815 0.2975086504196739 0  0.4581080832182547 0.3648371739579888 0  0.3874522734668214 0.2295447548840689 0  0.7827853612484443 0.04106550386289586 0  1.887722846421017 0.1760882698830035 0  1.472640588990488 0.1118278026240017 0  1.865937103925594 0.2604137786483804 0  1.463913572748262 0.2030442564990043 0  1.376426316059077 0.3186741374914345 0  0.6641993820150034 0.3141688596240831 0  0.2943117490824315 0.2130987422685822 0  0.3478153998082709 0.1666571081082676 0  0.3427990510599805 0.2575950027870776 0  0.7997118993855807 0.2216171933356366 0  
[...]
<PointData  Vectors="f_31"> 
<DataArray  type="Float64"  Name="f_31"  NumberOfComponents="3" format="ascii">4.5988690561488479e-07 -1.1542334816420062e-06 0.0000000000000000e+00  -4.3516436674689565e-06 1.8413111790988090e-06 0.0000000000000000e+00  4.2367451258628374e-06 2.4778206919853043e-08 0.0000000000000000e+00  -1.8404302082120002e-05 1.5457522986435398e-07 0.0000000000000000e+00  6.4156245367252097e-05 -5.0216347747447085e-05 0.0000000000000000e+00  4.8174254239717275e-05 -2.2082890766429598e-05 0.0000000000000000e+00  7.3663789796050991e-05 5.6292164654714833e-06 0.0000000000000000e+00  4.0021994191163709e-05 -1.3293836615446980e-05 0.0000000000000000e+00  -1.1121045499940273e-05 -2.1154163017404230e-05 0.0000000000000000e+00  -9.4417365263347469e-06 5.2621466282091046e-06 0.0000000000000000e+00  3.1645139237991558e-06 7.2296487054632154e-06 0.0000000000000000e+00  -1.9392623986691361e-06 -6.0763730846174508e-06 0.0000000000000000e+00  9.7756679398351085e-06 9.9257651084007558e-06 0.0000000000000000e+00  3.3055636417648210e-05 1.0774696999870247e-05 0.0000000000000000e+00  -3.5024856325768408e-06 -2.3315816384056338e-08 0.0000000000000000e+00  -8.3347458823177477e-07 -6.6285245405971235e-08 0.0000000000000000e+00  1.5000038234032689e+00 1.2750300449537962e-06 0.0000000000000000e+00  -8.8280472485216955e-06 -2.4787087886966991e-08 0.0000000000000000e+00  1.8880858065923150e-06 5.3947792442816762e-08 0.0000000000000000e+00  2.4365853408614760e-06 3.1463102255737195e-06 0.0000000000000000e+00  -9.6078925366157599e-06 -2.0924085549975710e-06 0.0000000000000000e+00  -1.9770285801075747e-06 -5.2979043742200423e-07 0.0000000000000000e+00  -1.8887995777022183e-06 1.9242291473982984e-07 0.0000000000000000e+00  5.8913189584262687e-07 1.1849682953582237e-07 0.0000000000000000e+00  -6.2193285319224673e-06 -1.8108492694909105e-07 0.0000000000000000e+00  -4.5553288752121242e-06 -5.1397488257649413e-08 0.0000000000000000e+00  -1.3782226121732014e-06 -2.0185288378699263e-07 0.0000000000000000e+00  -4.1100727562942750e-06 1.1832699973202164e-07 0.0000000000000000e+00  -3.5581304011849932e-06 -7.6910354468837440e-09 0.0000000000000000e+00  1.0734397028757614e+00 2.7235024837887287e-05 0.0000000000000000e+00  1.0733639252138738e+00 2.1539327061832486e-05 0.0000000000000000e+00  1.0724446375713836e+00 -1.2804216690671393e-03 0.0000000000000000e+00  1.0733169790670072e+00 -1.0970966055497732e-04 0.0000000000000000e+00  1.0732093447846145e+00 9.0745921847772992e-06 0.0000000000000000e+00  1.0739943417276678e+00 1.0253847508192196e-04 0.0000000000000000e+00  1.0278208176167234e+00 -1.1426395560932631e-02 0.0000000000000000e+00  1.0733001345600666e+00 1.3223254931171310e-05 0.0000000000000000e+00  4.4743235245143869e-07 -1.8821908246444387e-07 0.0000000000000000e+00  -9.8068270188544867e-07 2.2217081964621066e-07 0.0000000000000000e+00  1.0732813729035284e+00 -7.9985799018244164e-04 0.0000000000000000e+00  -9.0759878290383187e-06 6.8613822146045868e-08 0.0000000000000000e+00  -3.7120698342101049e-06 7.5082052849673803e-07 0.0000000000000000e+00  -7.8863103618421955e-06 -7.1234610582427667e-08 0.0000000000000000e+00  1.0733895819186148e+00 3.4013674186908890e-05 0.0000000000000000e+00  -2.2278810402145434e-06 7.0096132264453093e-08 0.0000000000000000e+00  -6.0654390598185217e-06 3.3133427125244242e-07 0.0000000000000000e+00  -9.6420857721164061e-08 7.5419576860128507e-08 0.0000000000000000e+00  1.0734646782939852e+00 -4.0710406336754904e-04 0.0000000000000000e+00  -2.7715952899221512e-06 3.4585555305101337e-09 0.0000000000000000e+00  1.3588201594282984e-06 -1.3929934824702302e-07 0.0000000000000000e+00  2.9055290186649340e-06 1.3983215094765632e-07 0.0000000000000000e+00  -8.5153344196766117e-06 5.6782789876756566e-08 0.0000000000000000e+00  2.9259570223652509e-05 -1.2040100647951924e-05 0.0000000000000000e+00  2.8828676938279834e-05 2.7576456968045977e-06 0.0000000000000000e+00  -5.6845585304149740e-08 1.1780894239535074e-07 0.0000000000000000e+00  1.0731744890201895e+00 -4.5896966382512373e-05 0.0000000000000000e+00  -1.4976344246819608e-06 -4.2073726457074598e-08 0.0000000000000000e+00  1.0733673623186974e+00 -5.3391407845346251e-05 0.0000000000000000e+00  1.0732741432129114e+00 -2.2921534924195484e-05 0.0000000000000000e+00  1.0732481672727090e+00 -8.4240025584091886e-05 0.0000000000000000e+00  1.0731867507839092e+00 -1.5295661966167822e-04 0.0000000000000000e+00  1.0734558080412724e+00 1.0597537667527189e-04 0.0000000000000000e+00  1.2694828036135462e+00 -2.4322676423746042e-01 0.0000000000000000e+00  1.0732795860034112e+00 -4.8988931621071810e-05 0.0000000000000000e+00  1.0734349769725011e+00 1.7881083745608202e-04 0.0000000000000000e+00  1.0732328525145740e+00 -2.5627389655044793e-05 0.0000000000000000e+00  1.0758884421021950e+00 -4.0874001684535876e-03 0.0000000000000000e+00  1.0721036465377136e+00 1.0751136651250533e-03 0.0000000000000000e+00  1.1111832097740286e+00 2.6169392784315021e-01 0.0000000000000000e+00  1.1249979572275610e+00 2.3643109073071081e-06 0.0000000000000000e+00  1.1249892505900476e+00 -5.3722782013611759e-07 0.0000000000000000e+00  1.0733508702150747e+00 3.0567064993729651e-05 0.0000000000000000e+00  1.0834976095124369e+00 2.6679103670192071e-02 0.0000000000000000e+00  1.0672811596965228e+00 -3.4211137025707862e-03 0.0000000000000000e+00  1.0971198978911478e+00 -3.2176079086012020e-02 0.0000000000000000e+00  1.0739792561098693e+00 -9.5275774506234194e-04 0.0000000000000000e+00  1.0732348736697723e+00 2.0674366398456404e-04 0.0000000000000000e+00  1.0730731963220344e+00 9.1170374949819954e-05 0.0000000000000000e+00  1.0730963592841734e+00 -8.8356085062852763e-06 0.0000000000000000e+00  1.0727635389126002e+00 -4.1494613042910742e-04 0.0000000000000000e+00  1.0724623493304082e+00 4.8162184692329902e-04 0.0000000000000000e+00  1.0733884936357843e+00 -1.0574763326778359e-04 0.0000000000000000e+00  1.0731212629159610e+00 1.0262103218721531e-04 0.0000000000000000e+00  1.0731872778771996e+00 -4.8288333525126458e-05 0.0000000000000000e+00  1.0733876033798089e+00 1.4650551987368247e-04 0.0000000000000000e+00  1.0733866450328613e+00 8.6977314698436219e-04 0.0000000000000000e+00  1.0732950789282800e+00 -2.3842027500044338e-04 0.0000000000000000e+00  1.0732845575899999e+00 -1.8896860573575844e-05 0.0000000000000000e+00  1.0732765407518727e+00 -8.2788057040488565e-05 0.0000000000000000e+00  1.0728729323875448e+00 -2.8515434204603107e-04 0.0000000000000000e+00  1.0731721378379571e+00 4.6926608722691784e-05 0.0000000000000000e+00  1.0732658915891513e+00 1.6630396755623765e-05 0.0000000000000000e+00  1.1984827482317970e+00 2.3175577706940806e-01 0.0000000000000000e+00  1.0733527470067863e+00 6.1820557594531001e-05 0.0000000000000000e+00  3.4504951428913216e-01 -2.4119947801334754e-01 0.0000000000000000e+00  1.0729847269495432e+00 -5.0048797793988552e-04 0.0000000000000000e+00  1.0733212707328528e+00 -3.3109805052773269e-05 0.0000000000000000e+00  1.2255584657339180e+00 3.7429215474502320e-01 0.0000000000000000e+00  1.0733102580554901e+00 4.2038317521793404e-05 0.0000000000000000e+00  1.5302529997782817e+00 1.2525532627779651e-01 0.0000000000000000e+00  1.1605122612920604e+00 -2.3089733094134746e-01 0.0000000000000000e+00  -4.3446123009281872e-07 -1.0280021670504063e-07 0.0000000000000000e+00  1.0714016526579015e+00 5.0421804522655434e-04 0.0000000000000000e+00  -3.1570720502759666e-06 7.4963317896842554e-08 0.0000000000000000e+00  -8.0598583127461929e-06 -2.0580454552801861e-07 0.0000000000000000e+00  1.0734168732082032e+00 -5.0161014639359457e-05 0.0000000000000000e+00  -2.0442621452142654e-05 3.6542870397216594e-06 0.0000000000000000e+00  1.0729132540319399e+00 -2.2202222355232896e-04 0.0000000000000000e+00  -5.3371134993971840e-06 4.9281819629554349e-08 0.0000000000000000e+00  -2.9052420196872146e-06 -1.1568850643245305e-07 0.0000000000000000e+00  1.0734276686155722e+00 -3.6125786274375697e-05 0.0000000000000000e+00  1.6031726017261023e-06 6.3959666094922699e-07 0.0000000000000000e+00  1.0539279140651379e+00 -1.1824785387938537e-01 0.0000000000000000e+00  1.4255925121124147e+00 -3.5010071320796765e-01 0.0000000000000000e+00  1.0732646653471771e+00 -1.4865242821095946e-04 0.0000000000000000e+00  1.3401184797630561e+00 -1.0983026585298548e-01 0.0000000000000000e+00  1.0667945583853631e+00 -1.8072398775994331e-02 0.0000000000000000e+00  1.3738450418636530e+00 1.1964098395909535e-01 0.0000000000000000e+00  1.0609571417310641e+00 8.4914610688880988e-03 0.0000000000000000e+00  1.0732239852986893e+00 2.4975996048965543e-05 0.0000000000000000e+00  1.0723744771075550e+00 -4.5830287007957686e-04 0.0000000000000000e+00  -5.5715011166654750e-07 1.6133323732349678e-07 0.0000000000000000e+00  1.0732896803021599e+00 -1.9519951465109361e-05 0.0000000000000000e+00  1.0733420569132406e+00 -1.9241088426106903e-04 0.0000000000000000e+00  1.0733019168564022e+00 3.3120609191132463e-05 0.0000000000000000e+00  1.0731447026416154e+00 -5.7038541056991744e-06 0.0000000000000000e+00  1.0729369086438332e+00 -2.6471006655495196e-04 0.0000000000000000e+00  -4.4553866533453111e-06 -2.1541360379786918e-07 0.0000000000000000e+00  1.0733443786682733e+00 5.9385014227936464e-05 0.0000000000000000e+00  1.0723642777259810e+00 1.4079329754156070e-04 0.0000000000000000e+00  1.4494245486680331e+00 -1.5260532120593738e-02 0.0000000000000000e+00  1.0732712934368505e+00 4.3179245542661420e-05 0.0000000000000000e+00  1.0732405403779224e+00 -8.6146666365719533e-05 0.0000000000000000e+00  -1.1131388856791840e-06 1.8873489942456728e-08 0.0000000000000000e+00  -1.6354694451879834e-05 2.0686455265827929e-07 0.0000000000000000e+00  1.0733885425141869e+00 -8.4032920733700901e-04 0.0000000000000000e+00  1.0726401258712062e+00 -2.5859245333594206e-04 0.0000000000000000e+00  1.1646511868108431e+00 -6.6003819282357101e-02 0.0000000000000000e+00  1.0734171924216305e+00 -4.9394125768270034e-05 0.0000000000000000e+00  4.3807788730839270e-06 7.3129899099975395e-06 0.0000000000000000e+00  6.5624945593541006e-01 1.0761641249722679e-06 0.0000000000000000e+00  1.0717271778658206e+00 -1.9946972249413944e-04 0.0000000000000000e+00  1.0817362632353289e+00 -1.0572035274287997e-02 0.0000000000000000e+00  1.0747807694989444e+00 6.3749713515384157e-03 0.0000000000000000e+00  -6.3285422073912673e-06 4.3018221832335049e-07 0.0000000000000000e+00  1.0716088221812934e+00 8.7382756489083548e-04 0.0000000000000000e+00  1.0733021783038124e+00 -2.6974423692025342e-05 0.0000000000000000e+00  -5.2596191874003627e-06 3.3232782372780470e-07 0.0000000000000000e+00  -1.2774650466528930e-05 1.8946235463320125e-07 0.0000000000000000e+00  -7.6047396594393325e-06 5.3633015827544839e-08 0.0000000000000000e+00  7.2162352919501421e-07 3.5131735492486851e-08 0.0000000000000000e+00  -4.5962337695334022e-06 2.1092452865807697e-08 0.0000000000000000e+00  -1.0666625485863369e-06 -5.3837072070451321e-08 0.0000000000000000e+00  -1.3707341956481817e-06 -2.3688362928081109e-07 0.0000000000000000e+00  -1.2053585702565025e-06 -5.6304758376679243e-07 0.0000000000000000e+00  5.7397140208449864e-06 -1.9966188243313192e-06 0.0000000000000000e+00  -1.3439786451544992e-05 3.9259759339453314e-07 0.0000000000000000e+00  -2.1452102916584598e-05 -4.1178298458489671e-06 0.0000000000000000e+00  1.4410777590336588e-05 -1.0571973598911516e-05 0.0000000000000000e+00  -1.5287806561194763e-07 2.2602839291209781e-08 0.0000000000000000e+00  -7.9403651655999915e-06 -1.1682126071870444e-07 0.0000000000000000e+00  -5.0579597303050097e-06 1.9618389085433300e-07 0.0000000000000000e+00  -1.1158305349815545e-06 -1.2801964159950604e-08 0.0000000000000000e+00  -8.7402192554272272e-06 -1.6217080014408689e-07 0.0000000000000000e+00  -2.5523443892393085e-06 -8.0071533817496370e-08 0.0000000000000000e+00  -2.2890855777060751e-06 -2.3058642966656447e-07 0.0000000000000000e+00  1.0689929534999916e+00 1.0743480593814506e-03 0.0000000000000000e+00  1.0720549433743831e+00 1.6923837841727922e-04 0.0000000000000000e+00  1.0723953306516394e+00 -5.0274412724235322e-04 0.0000000000000000e+00  1.0720532174421731e+00 5.1893626434447121e-05 0.0000000000000000e+00  1.0733426118973706e+00 -2.5935738313771543e-07 0.0000000000000000e+00  1.0733329256102639e+00 -3.7050906162620988e-06 0.0000000000000000e+00  1.0713314169277968e+00 -5.2722225127300906e-04 0.0000000000000000e+00  1.0701323724669565e+00 1.0694691957983784e-03 0.0000000000000000e+00  9.1937606785702430e-01 4.9222154286619781e-02 0.0000000000000000e+00  1.2186926968223113e+00 8.0398242248355900e-02 0.0000000000000000e+00  9.7870658479599326e-01 5.2953104520960481e-01 0.0000000000000000e+00  1.0735103447833747e+00 1.6562947219943733e-04 0.0000000000000000e+00  1.0734619468601534e+00 8.9932714012405304e-05 0.0000000000000000e+00  1.0733611471522342e+00 9.6341134206964557e-05 0.0000000000000000e+00  1.0732620565657229e+00 1.1686928118462582e-05 0.0000000000000000e+00  1.0702408160152652e+00 -1.3396899956865909e-04 0.0000000000000000e+00  1.0720027524240008e+00 -1.1797283855922705e-04 0.0000000000000000e+00  1.0718162280791246e+00 2.7961670781160667e-05 0.0000000000000000e+00  1.0730059132893459e+00 -2.1900819126368160e-04 0.0000000000000000e+00  1.0736872372582356e+00 -4.1802630092448287e-04 0.0000000000000000e+00  1.0711738035350757e+00 -9.8265278792251568e-05 0.0000000000000000e+00  1.3049054704393765e+00 -4.7315639922847208e-01 0.0000000000000000e+00  1.0733569340018343e+00 -6.4315617019287552e-07 0.0000000000000000e+00  1.0732953276161206e+00 3.0112452126994114e-05 0.0000000000000000e+00  1.0734306423016922e+00 4.2748024329567937e-06 0.0000000000000000e+00  1.0714697276258516e+00 -7.6700548369968419e-05 0.0000000000000000e+00  1.0733490832782446e+00 -4.0999437321229771e-05 0.0000000000000000e+00  1.0732429409721844e+00 -3.3183509383775629e-05 0.0000000000000000e+00  1.0713983066349322e+00 2.9723846605709522e-04 0.0000000000000000e+00  1.0733429895175419e+00 2.2154951178421144e-05 0.0000000000000000e+00  1.0721408440662181e+00 4.9946092391052531e-04 0.0000000000000000e+00  1.0736599030690892e+00 -2.1869121514715676e-03 0.0000000000000000e+00  6.5624717817319811e-01 -9.7883944730917581e-08 0.0000000000000000e+00  1.0705319152517005e+00 2.0326730679407523e-04 0.0000000000000000e+00  1.0713257865631112e+00 -4.3755878746057792e-04 0.0000000000000000e+00  1.0626284969906110e+00 8.5010301558509624e-02 0.0000000000000000e+00  1.0684754054744514e+00 1.1186946184009085e-03 0.0000000000000000e+00  1.0730870578061971e+00 -3.0619230941846540e-04 0.0000000000000000e+00  1.0731693290543654e+00 -4.6052436925609692e-05 0.0000000000000000e+00  1.0735725064938293e+00 -9.5974494344782611e-05 0.0000000000000000e+00  1.0732089605940338e+00 3.1898890761631921e-05 0.0000000000000000e+00  1.0732679827052265e+00 1.0941256098043847e-04 0.0000000000000000e+00  1.1056477304549073e+00 1.6644580291995486e-02 0.0000000000000000e+00  1.0715010782874068e+00 2.0863551498246495e-03 0.0000000000000000e+00  1.0671946482129864e+00 -5.8262252974213967e-04 0.0000000000000000e+00  1.0733273859183328e+00 -1.3713456609823642e-05 0.0000000000000000e+00  1.0732428783067700e+00 -1.6887223174290626e-04 0.0000000000000000e+00  1.0721447322501807e+00 -4.2767415573691635e-03 0.0000000000000000e+00  1.0737499424822052e+00 5.6732980946868879e-04 0.0000000000000000e+00  1.0817632399175579e+00 -5.7086678342409911e-03 0.0000000000000000e+00  1.0711561419107134e+00 -3.8783437946416646e-04 0.0000000000000000e+00  1.0609845466932337e+00 6.7600116989501664e-04 0.0000000000000000e+00  9.4327039104438748e-01 8.2555100189015282e-02 0.0000000000000000e+00  1.0654013600019490e+00 -1.6748209908036488e-03 0.0000000000000000e+00  1.0691425321680983e+00 2.0625042468052066e-03 0.0000000000000000e+00  1.0732708605472221e+00 4.3025265440099875e-05 0.0000000000000000e+00  1.0733567428145072e+00 -1.9864435160955188e-04 0.0000000000000000e+00  1.2261862451904355e+00 1.5474102984481061e-01 0.0000000000000000e+00  1.0725033671581259e+00 2.5976688295738297e-04 0.0000000000000000e+00  1.0730108548524071e+00 5.2116942556125828e-05 0.0000000000000000e+00  1.0733109124220290e+00 2.4628269030148360e-05 0.0000000000000000e+00  1.0734652938123133e+00 3.4666479910568814e-04 0.0000000000000000e+00  1.3456017513438276e+00 8.4861278486483130e-02 0.0000000000000000e+00  1.0731655170716754e+00 -1.1384239150885469e-05 0.0000000000000000e+00  1.0732234291912097e+00 -1.5759836938423343e-05 0.0000000000000000e+00  1.0734827077770541e+00 1.0522895756936607e-04 0.0000000000000000e+00  1.0732130146654359e+00 -8.9592424158867513e-05 0.0000000000000000e+00  1.0609883946419094e+00 2.6319744664310321e-06 0.0000000000000000e+00  1.0596226356005651e+00 -6.2459144555999582e-05 0.0000000000000000e+00  1.0693343208328188e+00 2.6957495327217693e-04 0.0000000000000000e+00  1.0714685625467324e+00 4.8048363362960365e-05 0.0000000000000000e+00  1.0721750332302256e+00 -1.2436866911376185e-04 0.0000000000000000e+00  1.0732878652857973e+00 8.4812859643628722e-06 0.0000000000000000e+00  1.0608659918710874e+00 -9.0160581162628136e-04 0.0000000000000000e+00  1.0734094472109974e+00 4.5225583745118337e-06 0.0000000000000000e+00  1.0734262775744539e+00 2.3337268695965065e-05 0.0000000000000000e+00  1.3431209836271671e+00 -5.8802079696181307e-02 0.0000000000000000e+00  1.0733363542988623e+00 -2.0933438043705246e-05 0.0000000000000000e+00  1.0733685982230881e+00 1.7608890718842262e-05 0.0000000000000000e+00  1.0729708287216371e+00 -2.7048534284511183e-04 0.0000000000000000e+00  1.0508279280160813e+00 -6.4594439150586066e-05 0.0000000000000000e+00  1.0732153357062013e+00 -9.9400546440170907e-05 0.0000000000000000e+00  1.0569527942941277e+00 -4.4286319362737095e-02 0.0000000000000000e+00  1.0687605574959158e+00 -7.8099474315049993e-04 0.0000000000000000e+00  7.4472820043311883e-01 -5.8226406743239700e-02 0.0000000000000000e+00  1.3258414022451039e+00 -8.8947602275573703e-02 0.0000000000000000e+00  1.0658939208800418e+00 1.0946826183067268e-03 0.0000000000000000e+00  1.0592799636081218e+00 4.6386072920786767e-04 0.0000000000000000e+00  1.5408638838139168e+00 4.5864676866203097e-01 0.0000000000000000e+00  9.4527650004507791e-01 2.1697919160344559e-01 0.0000000000000000e+00  1.0652331959011525e+00 -4.1457796259232601e-04 0.0000000000000000e+00  1.7779551316054838e+00 2.4729270112687596e-01 0.0000000000000000e+00  1.4973235370419888e+00 -5.0464974270250662e-01 0.0000000000000000e+00  9.4585284975150441e-01 -2.0884586553232823e-01 0.0000000000000000e+00  1.0639612588037448e+00 1.4754385575499637e-05 0.0000000000000000e+00  1.0666839571683016e+00 -1.7416929495027729e-04 0.0000000000000000e+00  1.0645234704075242e+00 -1.5152505975924029e-04 0.0000000000000000e+00  1.0688916083742783e+00 -6.7786963072640621e-04 0.0000000000000000e+00  1.0732634543728201e+00 7.6703633484154653e-06 0.0000000000000000e+00  1.0560764798275222e+00 -6.1023607538328003e-03 0.0000000000000000e+00  1.4062432727276077e+00 1.7088163584926510e-06 0.0000000000000000e+00  1.0738726980010180e+00 -2.5711181542784685e-04 0.0000000000000000e+00  1.0664132557962698e+00 6.3564612470081480e-04 0.0000000000000000e+00  1.4062422192669686e+00 2.5339148574405143e-07 0.0000000000000000e+00  1.0686508806555821e+00 -7.6832814801158506e-04 0.0000000000000000e+00  1.0731623452542685e+00 -1.2244218156122388e-04 0.0000000000000000e+00  1.2464299131066738e+00 5.9276232750196542e-02 0.0000000000000000e+00  1.0731306834279180e+00 -1.5258419481309350e-05 0.0000000000000000e+00  7.1982354274389071e-01 6.0579730794291416e-02 0.0000000000000000e+00  1.0735439956952351e+00 -1.3605254975989294e-05 0.0000000000000000e+00  1.0657487479294423e+00 4.9723962216549329e-04 0.0000000000000000e+00  1.0623375918235922e+00 7.0986850082865155e-04 0.0000000000000000e+00  1.0362249944929287e+00 -5.7342013972383791e-04 0.0000000000000000e+00  1.0733339888380369e+00 -1.2882007043567992e-04 0.0000000000000000e+00  1.0376266933348994e+00 6.4675073151482568e-04 0.0000000000000000e+00  1.0602999972038094e+00 -