<?xml version="1.0"?>
<VTKFile type="UnstructuredGrid"  version="0.1"  >
<UnstructuredGrid>
<Piece  NumberOfPoints="2446" NumberOfCells="4585">
<Points>
<DataArray  type="Float64"  NumberOfComponents="3"  format="ascii">0 0.41 0  0 0 0  2.2 0 0  2.2 0.41 0  0.2404508497187474 0.2293892626146237 0  0.25 0.2 0  0.2404508497187474 0.1706107373853764 0  0.2154508497187474 0.1524471741852423 0  0.1845491502812526 0.1524471741852423 0  0.1595491502812526 0.1706107373853764 0  0.15 0.2 0  0.1595491502812526 0.2293892626146237 0  0.1845491502812527 0.2475528258147577 0  0.2154508497187474 0.2475528258147577 0  1.1 0 0  1.1 0.41 0  0 0.205 0  0.55 0 0  0.55 0.41 0  0.275 0 0  0.275 0.41 0  1.65 0.41 0  1.65 0 0  0.8250000000000001 0.41 0  0.8250000000000001 0 0  1.375 0 0  1.375 0.41 0  1.925 0 0  1.925 0.41 0  1.5125 0.205 0  1.7875 0.205 0  0.6875 0.205 0  0.9625000000000001 0.205 0  1.2375 0.205 0  2.2 0.205 0  0.4687002074688797 0.2068568464730291 0  1.99375 0.2152743902439024 0  2.0625 0 0  2.0625 0.41 0  2.2 0.3075 0  0.4125 0 0  0.4125 0.41 0  1.7875 0.41 0  1.375 0.1486128048780488 0  1.5125 0 0  1.7875 0 0  1.5125 0.41 0  0.8250000000000001 0.2613871951219511 0  0.9625000000000001 0.41 0  0.9625000000000001 0 0  0.6875 0.41 0  0.6875 0 0  0.1375 0 0  0.1375 0.41 0  1.2375 0 0  1.1 0.1486128048780487 0  1.2375 0.41 0  1.65 0.1486128048780487 0  1.126715909090909 0.2793064024390244 0  1.676715909090909 0.2793064024390244 0  0.8517159090909092 0.1306935975609756 0  1.348284090909091 0.2793064024390244 0  0.34375 0.3032389320646208 0  1.894702181800738 0.1282910975492754 0  2.092797818199262 0.1282910975492754 0  1.85625 0.3075 0  0.61875 0.3075 0  0.61875 0.1025 0  0.3648540804333487 0.1240075933101478 0  0 0.3075 0  0 0.1025 0  2.099172119769978 0.25625 0  0.48125 0.09238439620688085 0  0.5781001037344399 0.2059284232365146 0  0.48125 0.3196743479159776 0  0.7265881057911006 0.3055240343720796 0  1.99375 0.08395950269330846 0  1.459960956013612 0.3075 0  1.569025960719943 0.2986889805672169 0  0.75625 0.08213100772579164 0  1.03125 0.3278689922742084 0  0.923871252904788 0.3078247185783941 0  1.959375 0.3126371951219512 0  1.749222215368287 0.1025 0  1.275777784631713 0.1025 0  2.2 0.1025 0  1.225938124459196 0.3075 0  1.550777784631713 0.1025 0  1.000777784631713 0.1025 0  1.44375 0.07430640243902442 0  1.16875 0.07430640243902437 0  1.899250267340833 0.2229966846119207 0  0.1020898364287272 0.3140258291809757 0  1.766482954545455 0.2934032012195123 0  0.3405058858996321 0.2119987970531874 0  0.7710785630958338 0.1710968191298857 0  1.046078563095834 0.2389031808701144 0  0.2 0.3400647632937836 0  1.421109702350723 0.2261157654379721 0  0.2800464974185557 0.08982544815605742 0  0.098916018031319 0.09171660955420841 0  2.13125 0 0  2.118919042110979 0.3422084711244843 0  1.30625 0.41 0  0.89375 0 0  1.597888256393107 0.2173787389261347 0  0.20625 0 0  1.829299675393195 0.07400700849299596 0  1.71875 0.41 0  1.16875 0.41 0  2.038220665644273 0.332420740103091 0  0.34375 0 0  0.417496017710808 0.2696595573092803 0  0.2 0.07687845740457822 0  0.9295982307099278 0.1343158415898188 0  0.07390688010811153 0.1697064032433452 0  0.5238366813727013 0.2578302467013575 0  0.05452951551825875 0.25625 0  0.5229630068078351 0.1548816096928243 0  1.452769549894695 0.1548122580621249 0  1.369219062229598 0.07430640243902442 0  1.30625 0 0  0.8504409521244898 0.3356935975609756 0  0.8821881244591965 0.205 0  1.720943423819132 0.1714577452753128 0  1.157188124459196 0.205 0  1.094219062229598 0.07430640243902437 0  1.03125 0 0  1.304056576180868 0.1714577452753128 0  1.67579304192913 0.07430640243902437 0  0.2751941921308361 0.3346083473122598 0  1.209670467133757 0.1362100266964769 0  1.025335513626278 0.1700681449722324 0  0.7562500000000001 0.41 0  1.58125 0 0  0.7567170593862014 0.2409196493502535 0  0.6926714215682891 0.1272249611432207 0  0.4139715849905988 0.3397932387114203 0  0.9840787304190477 0.2717749043358119 0  0.06875000000000001 0.41 0  0 0.35875 0  0.9281250000000001 0.06276726142697993 0  0.5507396469029935 0.3219409231578227 0  0.5504468037989405 0.09136885600634273 0  1.58125 0.41 0  1.631724228912893 0.3381867502687533 0  1.825608881788174 0.14499488549201 0  1.85625 0 0  1.44375 0 0  1.44375 0.41 0  1.85625 0.41 0  2.13125 0.41 0  0.7562500000000001 0 0  0.89375 0.41 0  0.4812500000000001 0 0  0.34375 0.41 0  0.4812500000000001 0.41 0  0.20625 0.41 0  0.06875000000000001 0 0  1.16875 0 0  0.61875 0 0  0.61875 0.41 0  1.03125 0.41 0  1.71875 0 0  1.99375 0 0  1.99375 0.41 0  1.340625 0.3489494290853124 0  1.134375 0.3489494290853123 0  1.700180620188976 0.3438659752031281 0  2.135782184673599 0.07126652247502523 0  1.668441847249787 0.2129203728327609 0  1.295782514339747 0.2378437748815763 0  0.8233075729931248 0.06842334294821524 0  1.409375 0.3520314716057996 0  0.403505597322782 0.182067236678212 0  0.378125 0.05794951541303489 0  0.3043468223249023 0.1518321115979534 0  2.129248544730567 0.1906135162504124 0  2.060771381434487 0.1989445750470348 0  2.013252586573865 0.1496169464686054 0  1.942766402200229 0.1734448904596831 0  1.895522487186454 0.06076163953489683 0  2.069553871656643 0.06605731020975725 0  1.274680914880868 0.3520219391081363 0  1.614713220494657 0.09473434380863296 0  0.7899021319497519 0.3149123934144827 0  0.69518737419149 0.0634051089053758 0  0.2971740475496061 0.2592172353407536 0  1.72990325744076 0.2380068107952482 0  1.356580098625191 0.2120393231351682 0  2.034370752044885 0.2668681600792073 0  1.51768709249349 0.3426260931494756 0  1.561883724969884 0.1650446847858835 0  1.197344062229598 0.2523725417393646 0  1.804085235518364 0.3468178408964637 0  1.817887819205233 0.2589243285818559 0  1.905897727272727 0.3485060975609756 0  0.6719798073392919 0.2688965171178177 0  0 0.05125 0  0.653125 0.35875 0  0.6396896119294488 0.1627615407790282 0  0.4274150154087412 0.1242548552168279 0  1.192836486056382 0.3562350748565544 0  0.8279124365364005 0.183856489168822 0  1.097485222388854 0.2083571153401724 0  1.28257088594801 0.2944411014911587 0  1.474860187679412 0.2504218616229368 0  1.406767003493824 0.2829282258560709 0  0.446875 0.04619219810344041 0  0.515625 0.04585361801037557 0  0.592043440706648 0.05125 0  1.845656689180403 0.1998310418452388 0  2.144958525570388 0.2909790873294231 0  0.6171090763650112 0.2492366900333857 0  2.2 0.15375 0  0.5145586920831158 0.3648371739579888 0  1.57794966442982 0.3540357145964566 0  0.721875 0.3633107922168974 0  0.0496154796471391 0.333125 0  0.5843750000000001 0.3662560860076676 0  0.5810878747760798 0.1474002776121195 0  1.508991196088596 0.1421783375065625 0  0.8840670607017558 0.2640994375393898 0  0.09776612425612034 0.2204896805326566 0  1.50436820029908 0.06143401634903343 0  1.223857000523521 0.0823554862453532 0  1.153316824384777 0.1289850171317837 0  2.148922302309752 0.1258841779285271 0  0.309375 0.04312325590431198 0  1.621993280276081 0.2841214267927899 0  1.550118654119087 0.2461998729100966 0  1.327182649291491 0.1216967252533594 0  1.051977450479407 0.1221382572915816 0  1.753125 0.04556020050186112 0  1.271875 0.04556020050186116 0  0.9816084133102366 0.05126138213476004 0  1.039051841454368 0.0572224914831029 0  0.9719230514536006 0.3480477870845102 0  1.94956388244759 0.1180512551534177 0  1.949997712993411 0.04965831614304109 0  1.771961817615021 0.1530278789497521 0  1.909246823951428 0.2812757146784527 0  0.2459536687882397 0.04668633953831142 0  1.948575539857022 0.2445328248721197 0  1.697271520964565 0.1233917627620729 0  0.7964897648514618 0.1211426571931604 0  1.065625 0.3689344961371042 0  1.085849084308977 0.3170853572226867 0  0.4702981435440001 0.260434880697798 0  1.577403511714593 0.05463601888079143 0  0.05622663515370135 0.05493816910862376 0  0.3267207591099919 0.3566194660323104 0  0.9003051618565143 0.3564049499960621 0  1.751571320346033 0.3651102912045228 0  0.1583785085108421 0.2994699345738728 0  0.1455283439499995 0.3542795598723423 0  2.2 0.35875 0  0.2347662494194072 0.298325008655211 0  0.1527284455616188 0.1065771775690181 0  0.1382139529076665 0.05427454456341477 0  0.8749341636311069 0.05110114999892954 0  0.643661668713109 0.05693499781019222 0  1.466879772203159 0.3611261772912453 0  1.990280163552011 0.3564754268533217 0  1.17471064520912 0.2990917256188288 0  0.5202693090594349 0.206382495511728 0  0 0.25625 0  2.2 0.25625 0  2.2 0.05125 0  0 0.15375 0  1.853978576207987 0.35875 0  0.9787513713939683 0.1487523696999336 0  0.240625 0.3722153812029779 0  1.515638456102889 0.2882700110184686 0  0.09048297387599738 0.3637717362208066 0  2.150453692751374 0.2387066338105111 0  1.323782677156475 0.04897634338873398 0  0.8074131292871642 0.3624701995505916 0  1.409375 0.03715320121951221 0  1.406484531114799 0.1087852750766809 0  1.134375 0.03715320121951218 0  1.627401732573545 0.04552157221025036 0  0.1170173172005315 0.1427610859166811 0  2.045405893604797 0.1105340662939892 0  1.255408269734577 0.1577307500159216 0  2.028125 0.03707597992059326 0  0.4743610090857199 0.1421513964721819 0  0.9354010469015898 0.250631300585664 0  0.04420832937638274 0.128125 0  0.8922386349349938 0.0992956419364831 0  0.1197849154434487 0.2663398672460083 0  1.248258025468107 0.2565907092181813 0  0.3746885856929528 0.370723531618974 0  1.203125 0.0366132337404304 0  0.5724622277005015 0.2751253816079333 0  0.3365425205162783 0.08395777655057959 0  2.072662025974815 0.2975086504196739 0  0.4581080832182547 0.3648371739579888 0  0.3874522734668214 0.2295447548840689 0  0.7827853612484443 0.04106550386289586 0  1.887722846421017 0.1760882698830035 0  1.472640588990488 0.1118278026240017 0  1.865937103925594 0.2604137786483804 0  1.463913572748262 0.2030442564990043 0  1.376426316059077 0.3186741374914345 0  0.6641993820150034 0.3141688596240831 0  0.2943117490824315 0.2130987422685822 0  0.3478153998082709 0.1666571081082676 0  0.3427990510599805 0.2575950027870776 0  0.7997118993855807 0.2216171933356366 0  
[...]
<PointData  Vectors="f_31"> 
<DataArray  type="Float64"  Name="f_31"  NumberOfComponents="3" format="ascii">2.1369694669349541e-06 6.0513931196116526e-08 0.0000000000000000e+00  -2.2817086550206382e-06 1.4490400647051169e-08 0.0000000000000000e+00  4.1065195126432055e-06 -1.7189319442433189e-08 0.0000000000000000e+00  -1.6637228347562196e-05 1.9024927603839610e-08 0.0000000000000000e+00  -4.8163968129620694e-06 7.7832957182177192e-07 0.0000000000000000e+00  -8.5053772475276542e-06 1.8267347852659139e-05 0.0000000000000000e+00  -8.0722440542248579e-06 9.4820045796013415e-06 0.0000000000000000e+00  -7.1545321227590704e-06 -2.9342634569417918e-06 0.0000000000000000e+00  -1.0347721993594970e-05 -4.4807193243496166e-06 0.0000000000000000e+00  -6.4097937354592958e-06 1.1412545283005711e-06 0.0000000000000000e+00  1.0974962796707720e-06 8.6828908248080873e-06 0.0000000000000000e+00  -4.6679817199430055e-06 -3.2576946394174313e-06 0.0000000000000000e+00  9.5741448872286661e-06 3.4662711770210108e-06 0.0000000000000000e+00  -1.2846090977480031e-05 -5.6591778005141540e-07 0.0000000000000000e+00  -2.7329219131397451e-06 1.3043510337028113e-08 0.0000000000000000e+00  -2.3084826236533413e-07 1.4502076299808563e-08 0.0000000000000000e+00  1.5000042449989899e+00 1.5217251018963238e-06 0.0000000000000000e+00  -1.8022939965634558e-05 5.0437533273907127e-08 0.0000000000000000e+00  -7.0705130489620873e-06 -2.4275733433414820e-07 0.0000000000000000e+00  6.0521276684858793e-06 1.5938489104958748e-07 0.0000000000000000e+00  -1.1015190902663918e-06 2.6632062047698113e-07 0.0000000000000000e+00  2.6046981293817079e-07 -3.9328834496839165e-09 0.0000000000000000e+00  1.6577450007550579e-08 -4.4569458360159919e-08 0.0000000000000000e+00  1.3652506057778877e-06 -4.6836969171377123e-08 0.0000000000000000e+00  -5.4205535298406553e-06 1.3480191237164345e-08 0.0000000000000000e+00  -4.0318380551718924e-06 1.8856305244409304e-08 0.0000000000000000e+00  -9.2032608214713540e-07 1.8960894544395092e-08 0.0000000000000000e+00  -3.2268821858745349e-06 4.0574413368202290e-08 0.0000000000000000e+00  -2.6572102670934419e-06 -2.8965469987751585e-08 0.0000000000000000e+00  1.1113630768774434e+00 5.7013591288551980e-05 0.0000000000000000e+00  1.1113350131282880e+00 -5.0364325770297686e-06 0.0000000000000000e+00  1.1144777232261092e+00 -5.9502006495534302e-03 0.0000000000000000e+00  1.1111998403616707e+00 -3.9234930807016948e-04 0.0000000000000000e+00  1.1109695773830739e+00 -4.5908248029878816e-05 0.0000000000000000e+00  1.1112413678446944e+00 3.5745921662655549e-05 0.0000000000000000e+00  6.4659706383201432e-01 -7.4926277797578225e-02 0.0000000000000000e+00  1.1111489860494170e+00 -2.2380729021990676e-05 0.0000000000000000e+00  9.6498978677445247e-08 8.9939829639348200e-09 0.0000000000000000e+00  -9.3512394572986890e-07 1.0522274149465192e-08 0.0000000000000000e+00  1.1109596572866112e+00 7.4873151550427575e-05 0.0000000000000000e+00  1.1319035749283780e-05 1.3810220974426908e-06 0.0000000000000000e+00  8.2892016224497079e-06 -8.9445473120127840e-07 0.0000000000000000e+00  -6.5521842555053719e-06 -6.1340184222892946e-08 0.0000000000000000e+00  1.1112079300846303e+00 7.7647637095805538e-05 0.0000000000000000e+00  -6.4418068741679997e-07 -2.7464458947849681e-08 0.0000000000000000e+00  -4.4671119379501266e-06 3.2859215075100193e-08 0.0000000000000000e+00  8.1996656306266744e-07 -1.9032097136481869e-09 0.0000000000000000e+00  1.1125358352582930e+00 -7.3214746835693412e-04 0.0000000000000000e+00  -2.0629327293693756e-06 6.4232920117041237e-09 0.0000000000000000e+00  2.3699156347843581e-06 -1.1987446360880425e-08 0.0000000000000000e+00  1.6222948669361310e-06 -4.6334182808562241e-08 0.0000000000000000e+00  -7.2478768110372622e-06 1.6416731494795284e-07 0.0000000000000000e+00  -5.0898660500019139e-06 9.7647275214017478e-07 0.0000000000000000e+00  -5.1733567113772969e-06 -8.9873785736800275e-07 0.0000000000000000e+00  2.3676437589222136e-07 2.4774466658528885e-08 0.0000000000000000e+00  1.1110638364376682e+00 -1.0140596924360959e-04 0.0000000000000000e+00  -1.8146965150500765e-06 3.1572195884744362e-09 0.0000000000000000e+00  1.1112980757201856e+00 2.0482746414995084e-05 0.0000000000000000e+00  1.1111746486414005e+00 -2.7475669970328961e-05 0.0000000000000000e+00  1.1110235358183442e+00 2.8703720176553635e-06 0.0000000000000000e+00  1.1108506285237529e+00 -1.3871719163419897e-03 0.0000000000000000e+00  1.1112097174249509e+00 -5.7302708286742484e-05 0.0000000000000000e+00  1.9193593015260433e+00 -2.0314843320924153e-01 0.0000000000000000e+00  1.1113092765411994e+00 -9.2140017510397438e-05 0.0000000000000000e+00  1.1112182734316827e+00 -4.3331710373762508e-05 0.0000000000000000e+00  1.1107695317617270e+00 -1.2207789495990554e-05 0.0000000000000000e+00  1.1360229056772939e+00 1.4475512949643208e-03 0.0000000000000000e+00  1.1177099161472712e+00 -1.3427445547690096e-02 0.0000000000000000e+00  1.8241839392404904e+00 4.1256930212240372e-01 0.0000000000000000e+00  1.1249990293587391e+00 6.0156855248257388e-07 0.0000000000000000e+00  1.1249900751444719e+00 1.0840253054728353e-06 0.0000000000000000e+00  1.1111581415357910e+00 -2.7531930612359432e-05 0.0000000000000000e+00  1.2069549874206678e+00 4.1039767822896187e-02 0.0000000000000000e+00  1.0958318420346054e+00 -2.0129709566047500e-02 0.0000000000000000e+00  1.2234256652062656e+00 -2.7938846576152282e-02 0.0000000000000000e+00  1.1156923424337866e+00 8.2159337418769181e-04 0.0000000000000000e+00  1.1095528868304061e+00 -1.2311773933326690e-04 0.0000000000000000e+00  1.1112325109896757e+00 3.6203340723724265e-05 0.0000000000000000e+00  1.1108006394721837e+00 1.9886229458923970e-04 0.0000000000000000e+00  1.1062305875936644e+00 -3.4671144621619006e-03 0.0000000000000000e+00  1.1083968901054202e+00 2.3743008154430127e-04 0.0000000000000000e+00  1.1113139502666145e+00 -8.6526526415179206e-05 0.0000000000000000e+00  1.1108516770244783e+00 1.5757795317320914e-04 0.0000000000000000e+00  1.1104124317141264e+00 -2.4939834197504525e-04 0.0000000000000000e+00  1.1110893700283773e+00 -6.0110890562718837e-05 0.0000000000000000e+00  1.1107465838249022e+00 -1.6604649661444720e-04 0.0000000000000000e+00  1.1110047628750641e+00 2.3652827273027046e-05 0.0000000000000000e+00  1.1109661678002807e+00 -8.8259895511827978e-05 0.0000000000000000e+00  1.1109475230585160e+00 -1.5678342396588325e-04 0.0000000000000000e+00  1.1062590417780997e+00 2.3696034773932709e-04 0.0000000000000000e+00  1.1058722309671547e+00 1.5220246827382593e-06 0.0000000000000000e+00  1.1111973972501736e+00 1.7765491208843454e-05 0.0000000000000000e+00  1.1885930557728570e+00 2.5445919565252079e-01 0.0000000000000000e+00  1.1109775751374933e+00 1.3591183364191827e-05 0.0000000000000000e+00  -7.2356470048436705e-01 -4.0946757350155551e-02 0.0000000000000000e+00  1.1117756293310668e+00 -3.1249132966511889e-03 0.0000000000000000e+00  1.1112848142815523e+00 -1.2827924591974856e-04 0.0000000000000000e+00  1.3954514459537837e+00 2.1281914211816502e-01 0.0000000000000000e+00  1.1111382573811244e+00 1.1519570924506755e-06 0.0000000000000000e+00  1.8887845585152649e+00 -5.8635432315565020e-02 0.0000000000000000e+00  1.1396252855246942e+00 -2.4513960603659180e-01 0.0000000000000000e+00  -5.8689217125896923e-07 2.4312089433993058e-08 0.0000000000000000e+00  1.1003518799843339e+00 3.2297560120967675e-04 0.0000000000000000e+00  -2.2918151776245692e-06 -1.4044085984764722e-08 0.0000000000000000e+00  -7.2742401828939171e-06 5.1387251424368740e-10 0.0000000000000000e+00  1.1113777856362927e+00 2.5812266343525098e-05 0.0000000000000000e+00  1.7373597476449024e-06 -3.7917464024431143e-07 0.0000000000000000e+00  1.1056583200351131e+00 5.0680285619888623e-05 0.0000000000000000e+00  -3.2518846073733144e-06 1.8565894420923539e-08 0.0000000000000000e+00  -2.2286377936564500e-06 -7.5992050667180207e-09 0.0000000000000000e+00  1.1077227362812492e+00 -8.4704983912751370e-05 0.0000000000000000e+00  6.6858841391301212e-06 3.0311573567708438e-07 0.0000000000000000e+00  1.5787690350670667e+00 -4.9335965315592550e-01 0.0000000000000000e+00  1.5219331213027429e+00 -2.6937129217106570e-01 0.0000000000000000e+00  1.1109835827587202e+00 -6.1491119914512747e-04 0.0000000000000000e+00  1.3358534907648447e+00 -1.0116732770330858e-01 0.0000000000000000e+00  1.1769522036187012e+00 -8.5956566209722723e-02 0.0000000000000000e+00  1.3741099463696516e+00 1.2995332138101243e-01 0.0000000000000000e+00  1.1149505513567375e+00 5.8611475758358011e-02 0.0000000000000000e+00  1.1112078995882413e+00 1.0288389211363089e-04 0.0000000000000000e+00  1.1051468350763858e+00 -1.9368609848703788e-04 0.0000000000000000e+00  -5.2259207447629904e-07 -3.6343228564450203e-09 0.0000000000000000e+00  1.1059820949295289e+00 3.3966335268177157e-04 0.0000000000000000e+00  1.1114554036744324e+00 -8.5482501402851644e-04 0.0000000000000000e+00  1.1112328418546829e+00 3.0540383661509886e-05 0.0000000000000000e+00  1.1110079609772505e+00 -3.8302455989361362e-05 0.0000000000000000e+00  1.1064159762702979e+00 -1.3000192872047612e-04 0.0000000000000000e+00  -3.4191860554077330e-06 1.2217433157118360e-08 0.0000000000000000e+00  1.1111055984460629e+00 1.8397985926634205e-06 0.0000000000000000e+00  1.1056308214146087e+00 1.4234724845165137e-04 0.0000000000000000e+00  1.6359468247047189e+00 3.9333683768708411e-02 0.0000000000000000e+00  1.1111111979415982e+00 -3.2372677973130965e-05 0.0000000000000000e+00  1.1110976595861317e+00 -2.0358903460012157e-04 0.0000000000000000e+00  -1.1989913890130764e-06 -1.6045046945106979e-08 0.0000000000000000e+00  -1.4328230777095946e-05 7.5087564669710733e-09 0.0000000000000000e+00  1.1140202516433979e+00 -2.0520832258935492e-03 0.0000000000000000e+00  1.1113396293284041e+00 -6.9366251300566270e-03 0.0000000000000000e+00  1.3349404914964296e+00 -1.4541607281444199e-01 0.0000000000000000e+00  1.1114738646815376e+00 -1.7515139550561883e-04 0.0000000000000000e+00  -2.8085958530022410e-06 -2.3986471605961390e-07 0.0000000000000000e+00  6.5625074116354720e-01 2.6020458122892787e-07 0.0000000000000000e+00  1.0922225978552962e+00 -4.1665015413580911e-04 0.0000000000000000e+00  1.1748087305989818e+00 1.1316734020300505e-03 0.0000000000000000e+00  1.1520825948305451e+00 -1.2545473654878805e-02 0.0000000000000000e+00  -5.5801040006831984e-06 -3.5298290343221300e-09 0.0000000000000000e+00  1.1042202736689435e+00 3.1176726311805405e-04 0.0000000000000000e+00  1.1112939154318149e+00 -1.2437086073587957e-05 0.0000000000000000e+00  -3.7437018135646211e-06 -1.4608208896382530e-08 0.0000000000000000e+00  -1.0936855086109143e-05 1.5391928087569165e-08 0.0000000000000000e+00  -4.9311334140515457e-06 -4.2052716726575738e-08 0.0000000000000000e+00  1.6353727687256166e-06 7.4391604207639342e-08 0.0000000000000000e+00  -2.9404316459472795e-06 -3.9037390069675017e-08 0.0000000000000000e+00  -1.0269712504193543e-06 5.7599458838708578e-08 0.0000000000000000e+00  5.4228989154232613e-07 -5.5638663540596972e-09 0.0000000000000000e+00  -3.4103742719945809e-06 1.1142409034213048e-06 0.0000000000000000e+00  1.1401527783152971e-05 2.9718976051935106e-08 0.0000000000000000e+00  -9.2269130215959997e-06 -9.2086043705865290e-07 0.0000000000000000e+00  -2.5966076195773508e-06 -5.6323105907195044e-07 0.0000000000000000e+00  6.0886035241638315e-07 1.2622174196776451e-07 0.0000000000000000e+00  -3.5638403522001458e-07 -9.3480848900273709e-09 0.0000000000000000e+00  -1.1811608386586311e-05 1.0254635787009458e-07 0.0000000000000000e+00  -9.6167009536482175e-06 -2.9564706457360904e-07 0.0000000000000000e+00  -9.2288115450886533e-07 -1.6667656484235984e-08 0.0000000000000000e+00  -7.9347065365414095e-06 -3.4822792895746156e-08 0.0000000000000000e+00  -2.2410883927487211e-06 -1.8817100129348080e-08 0.0000000000000000e+00  -8.3628429731505734e-07 4.3299430226584793e-09 0.0000000000000000e+00  1.0878866953551849e+00 3.1610676974413115e-04 0.0000000000000000e+00  1.0901121464783623e+00 -3.3704792215461046e-05 0.0000000000000000e+00  1.0982291315316322e+00 -1.4058967615121593e-04 0.0000000000000000e+00  1.1033542478669338e+00 -2.6238035346571735e-04 0.0000000000000000e+00  1.1113624079819031e+00 5.0028884934211050e-05 0.0000000000000000e+00  1.1110315609054655e+00 -4.1348604117225230e-05 0.0000000000000000e+00  1.0991125589071660e+00 -1.3892192258201624e-03 0.0000000000000000e+00  1.0825505740635413e+00 -4.0694097239221059e-04 0.0000000000000000e+00  -2.2645895777773491e-02 3.3153216999364171e-01 0.0000000000000000e+00  1.3993191937207159e+00 1.7943350504557767e-01 0.0000000000000000e+00  5.0146727316533901e-01 -1.7017499519080381e-01 0.0000000000000000e+00  1.1111695292100818e+00 4.7809402512837531e-07 0.0000000000000000e+00  1.1112535475845158e+00 -2.5800558529328578e-05 0.0000000000000000e+00  1.1112501166269908e+00 -4.9545841762967958e-05 0.0000000000000000e+00  1.1112154677775106e+00 -2.9434244716379169e-05 0.0000000000000000e+00  1.0884296222883318e+00 -1.0153028313090125e-04 0.0000000000000000e+00  1.0978182987357077e+00 -8.7244373987762478e-05 0.0000000000000000e+00  1.0831024693464106e+00 -1.5012053141457584e-04 0.0000000000000000e+00  1.1103531291562141e+00 -9.5729491486774772e-05 0.0000000000000000e+00  1.1125602668445771e+00 5.1649797646291377e-04 0.0000000000000000e+00  1.0873849602541048e+00 -7.5124427491691523e-03 0.0000000000000000e+00  8.4441184637157951e-01 3.7502979416477344e-02 0.0000000000000000e+00  1.1112755898386681e+00 2.0068013210813287e-05 0.0000000000000000e+00  1.1110091772857467e+00 -2.5260974240530770e-05 0.0000000000000000e+00  1.1112225140263594e+00 -2.2590338945890539e-05 0.0000000000000000e+00  1.0999593066075446e+00 4.8279148735766127e-04 0.0000000000000000e+00  1.1113044427494745e+00 3.5845192946694226e-05 0.0000000000000000e+00  1.1110893027100015e+00 8.5903260343256756e-06 0.0000000000000000e+00  1.0943754518716395e+00 -8.6837018622650712e-05 0.0000000000000000e+00  1.1112066778777754e+00 4.3602461900354960e-06 0.0000000000000000e+00  1.0910132842274300e+00 5.5640644752390570e-04 0.0000000000000000e+00  1.1202718027032508e+00 -3.6684459367463673e-03 0.0000000000000000e+00  6.5624823509610375e-01 5.8688114061600093e-08 0.0000000000000000e+00  1.0548817413164773e+00 1.0864522647945834e-02 0.0000000000000000e+00  1.1126183007423698e+00 -6.4921389526024281e-03 0.0000000000000000e+00  1.5282318519271751e+00 4.9262655673411704e-01 0.0000000000000000e+00  1.0687535493373921e+00 3.9316457906854707e-04 0.0000000000000000e+00  1.1114633650335628e+00 -1.6621741421939137e-03 0.0000000000000000e+00  1.1110691868238738e+00 -9.8370085414360977e-05 0.0000000000000000e+00  1.1112070481306338e+00 -6.5149677359620782e-05 0.0000000000000000e+00  1.1112039712086093e+00 2.7641943148512545e-05 0.0000000000000000e+00  1.1112591620883439e+00 -1.2205100845608773e-04 0.0000000000000000e+00  1.0351991331870520e+00 5.4600894520058382e-02 0.0000000000000000e+00  9.8893971584161922e-01 -2.4558332832672281e-02 0.0000000000000000e+00  1.0333185840726327e+00 -3.0797991951614583e-02 0.0000000000000000e+00  1.1112650991928339e+00 -1.5016143502168830e-05 0.0000000000000000e+00  1.1111840738178347e+00 4.8036884269236710e-07 0.0000000000000000e+00  1.1228275640235088e+00 -1.5950970472440009e-02 0.0000000000000000e+00  1.1110468982226838e+00 6.4584768584034704e-05 0.0000000000000000e+00  1.0136999934111459e+00 1.0482317812499798e-02 0.0000000000000000e+00  1.0770531598310131e+00 2.6102850725109189e-04 0.0000000000000000e+00  1.0297948178729308e+00 2.7184583730835081e-03 0.0000000000000000e+00  9.4213084309502793e-01 9.4685221671780478e-02 0.0000000000000000e+00  9.8974804264351179e-01 2.4239491951543349e-02 0.0000000000000000e+00  1.1155948147271473e+00 4.6625157467562435e-03 0.0000000000000000e+00  1.1113073418438857e+00 7.9993883176344182e-05 0.0000000000000000e+00  1.1118247536159642e+00 -4.6136658275780398e-04 0.0000000000000000e+00  1.2248639453435575e+00 1.7320844519941431e-01 0.0000000000000000e+00  1.0917624071615393e+00 -1.2985711040504466e-04 0.0000000000000000e+00  1.1088970203885724e+00 -1.1592426748762019e-04 0.0000000000000000e+00  1.1111768302871254e+00 -8.0400258024838775e-05 0.0000000000000000e+00  1.1112211756334345e+00 -1.0662157089280575e-04 0.0000000000000000e+00  1.3510315540581950e+00 5.6648966796452413e-02 0.0000000000000000e+00  1.1109737717171297e+00 5.6083559264554980e-05 0.0000000000000000e+00  1.1111133103700523e+00 4.1758832999163885e-05 0.0000000000000000e+00  1.1112008763741428e+00 6.2338778001467624e-05 0.0000000000000000e+00  1.1111041696580828e+00 -1.5898880580091960e-04 0.0000000000000000e+00  1.0245913622325273e+00 -3.3903746413232869e-04 0.0000000000000000e+00  1.0243921512577283e+00 -4.2660153044408279e-04 0.0000000000000000e+00  1.0597669160577046e+00 -2.1988145246213729e-04 0.0000000000000000e+00  1.0799602550061780e+00 -7.3395657601597968e-08 0.0000000000000000e+00  1.0918499272108935e+00 1.2529605078102384e-04 0.0000000000000000e+00  1.1112459692277927e+00 -1.0518322306906471e-04 0.0000000000000000e+00  1.0471954241757659e+00 -5.1997786819354887e-04 0.0000000000000000e+00  1.1113337911411749e+00 -1.4559324326793035e-05 0.0000000000000000e+00  1.1112973668257635e+00 6.4012234485631171e-05 0.0000000000000000e+00  1.3301278825865881e+00 -7.3912414028667883e-02 0.0000000000000000e+00  1.1112244879323854e+00 8.4792016150597485e-06 0.0000000000000000e+00  1.1112465047620812e+00 -7.7963346947776195e-06 0.0000000000000000e+00  1.1103209474338922e+00 -2.5223195345641827e-03 0.0000000000000000e+00  9.8641220459824430e-01 -1.0576602727007277e-04 0.0000000000000000e+00  1.1107374376877568e+00 -4.2020759463545347e-06 0.0000000000000000e+00  1.3096831898692813e+00 -3.1006394069899351e-01 0.0000000000000000e+00  1.0705681443162083e+00 -1.7956915836697641e-04 0.0000000000000000e+00  7.3728711145836678e-01 -7.6729186171693359e-02 0.0000000000000000e+00  1.3787981713349833e+00 -7.2211099574780266e-02 0.0000000000000000e+00  1.0668015522984005e+00 9.4227269107434352e-05 0.0000000000000000e+00  1.0190004432790458e+00 1.5758947582732527e-04 0.0000000000000000e+00  1.5373801372746276e+00 4.6531218334269242e-01 0.0000000000000000e+00  1.0044404010180301e+00 1.7480081372012743e-01 0.0000000000000000e+00  1.0575051976215895e+00 3.5939783472600442e-04 0.0000000000000000e+00  1.9178078666972256e+00 2.1742384399553985e-01 0.0000000000000000e+00  1.4596335118880168e+00 -5.0695519969976222e-01 0.0000000000000000e+00  9.7250288781693517e-01 -1.8782065169502338e-01 0.0000000000000000e+00  1.0555456366808182e+00 -7.0897742678016228e-04 0.0000000000000000e+00  1.0655056307981199e+00 -1.5465105254315747e-02 0.0000000000000000e+00  1.0453958021772176e+00 5.7062831437275341e-04 0.0000000000000000e+00  1.0680129408454069e+00 -3.0967108487351450e-05 0.0000000000000000e+00  1.1111736300887776e+00 2.6791066600512870e-05 0.0000000000000000e+00  9.8880818808483262e-01 -4.5850300361258929e-02 0.0000000000000000e+00  1.4062435178077939e+00 1.1663512098874948e-06 0.0000000000000000e+00  1.1112884395016307e+00 1.2547820388289336e-04 0.0000000000000000e+00  1.0581694461362356e+00 -9.8148686662757716e-04 0.0000000000000000e+00  1.4062429050559322e+00 1.2468701949383151e-06 0.0000000000000000e+00  1.0584660646693262e+00 -4.5557962742880727e-04 0.0000000000000000e+00  1.1110015905989488e+00 -3.3295044588252181e-04 0.0000000000000000e+00  1.1210996857465467e+00 4.4783195818130547e-02 0.0000000000000000e+00  1.1112203497294755e+00 1.2005938527792259e-04 0.0000000000000000e+00  7.1509574241587437e-01 9.8589504031191058e-02 0.0000000000000000e+00  1.1111649567937358e+00 2.5017201916197342e-05 0.0000000000000000e+00  1.0461027505700633e+00 -1.3772146873333534e-04 0.0000000000000000e+00  1.0372291456762126e+00 1.0431297162992593e-03 0.0000000000000000e+00  9.4468002065155954e-01 4.5748534594968024e-04 0.0000000000000000e+00  1.1111380539524571e+00 9.7672372118937168e-05 0.0000000000000000e+00  9.4586132947118284e-01 -1.5199610278451164e-04 0.0000000000000000e+00  1.0230621786593279