<?xml version="1.0"?>
<VTKFile type="UnstructuredGrid"  version="0.1"  >
<UnstructuredGrid>
<Piece  NumberOfPoints="2446" NumberOfCells="4585">
<Points>
<DataArray  type="Float64"  NumberOfComponents="3"  format="ascii">0 0.41 0  0 0 0  2.2 0 0  2.2 0.41 0  0.2404508497187474 0.2293892626146237 0  0.25 0.2 0  0.2404508497187474 0.1706107373853764 0  0.2154508497187474 0.1524471741852423 0  0.1845491502812526 0.1524471741852423 0  0.1595491502812526 0.1706107373853764 0  0.15 0.2 0  0.1595491502812526 0.2293892626146237 0  0.1845491502812527 0.2475528258147577 0  0.2154508497187474 0.2475528258147577 0  1.1 0 0  1.1 0.41 0  0 0.205 0  0.55 0 0  0.55 0.41 0  0.275 0 0  0.275 0.41 0  1.65 0.41 0  1.65 0 0  0.8250000000000001 0.41 0  0.8250000000000001 0 0  1.375 0 0  1.375 0.41 0  1.925 0 0  1.925 0.41 0  1.5125 0.205 0  1.7875 0.205 0  0.6875 0.205 0  0.9625000000000001 0.205 0  1.2375 0.205 0  2.2 0.205 0  0.4687002074688797 0.2068568464730291 0  1.99375 0.2152743902439024 0  2.0625 0 0  2.0625 0.41 0  2.2 0.3075 0  0.4125 0 0  0.4125 0.41 0  1.7875 0.41 0  1.375 0.1486128048780488 0  1.5125 0 0  1.7875 0 0  1.5125 0.41 0  0.8250000000000001 0.2613871951219511 0  0.9625000000000001 0.41 0  0.9625000000000001 0 0  0.6875 0.41 0  0.6875 0 0  0.1375 0 0  0.1375 0.41 0  1.2375 0 0  1.1 0.1486128048780487 0  1.2375 0.41 0  1.65 0.1486128048780487 0  1.126715909090909 0.2793064024390244 0  1.676715909090909 0.2793064024390244 0  0.8517159090909092 0.1306935975609756 0  1.348284090909091 0.2793064024390244 0  0.34375 0.3032389320646208 0  1.894702181800738 0.1282910975492754 0  2.092797818199262 0.1282910975492754 0  1.85625 0.3075 0  0.61875 0.3075 0  0.61875 0.1025 0  0.3648540804333487 0.1240075933101478 0  0 0.3075 0  0 0.1025 0  2.099172119769978 0.25625 0  0.48125 0.09238439620688085 0  0.5781001037344399 0.2059284232365146 0  0.48125 0.3196743479159776 0  0.7265881057911006 0.3055240343720796 0  1.99375 0.08395950269330846 0  1.459960956013612 0.3075 0  1.569025960719943 0.2986889805672169 0  0.75625 0.08213100772579164 0  1.03125 0.3278689922742084 0  0.923871252904788 0.3078247185783941 0  1.959375 0.3126371951219512 0  1.749222215368287 0.1025 0  1.275777784631713 0.1025 0  2.2 0.1025 0  1.225938124459196 0.3075 0  1.550777784631713 0.1025 0  1.000777784631713 0.1025 0  1.44375 0.07430640243902442 0  1.16875 0.07430640243902437 0  1.899250267340833 0.2229966846119207 0  0.1020898364287272 0.3140258291809757 0  1.766482954545455 0.2934032012195123 0  0.3405058858996321 0.2119987970531874 0  0.7710785630958338 0.1710968191298857 0  1.046078563095834 0.2389031808701144 0  0.2 0.3400647632937836 0  1.421109702350723 0.2261157654379721 0  0.2800464974185557 0.08982544815605742 0  0.098916018031319 0.09171660955420841 0  2.13125 0 0  2.118919042110979 0.3422084711244843 0  1.30625 0.41 0  0.89375 0 0  1.597888256393107 0.2173787389261347 0  0.20625 0 0  1.829299675393195 0.07400700849299596 0  1.71875 0.41 0  1.16875 0.41 0  2.038220665644273 0.332420740103091 0  0.34375 0 0  0.417496017710808 0.2696595573092803 0  0.2 0.07687845740457822 0  0.9295982307099278 0.1343158415898188 0  0.07390688010811153 0.1697064032433452 0  0.5238366813727013 0.2578302467013575 0  0.05452951551825875 0.25625 0  0.5229630068078351 0.1548816096928243 0  1.452769549894695 0.1548122580621249 0  1.369219062229598 0.07430640243902442 0  1.30625 0 0  0.8504409521244898 0.3356935975609756 0  0.8821881244591965 0.205 0  1.720943423819132 0.1714577452753128 0  1.157188124459196 0.205 0  1.094219062229598 0.07430640243902437 0  1.03125 0 0  1.304056576180868 0.1714577452753128 0  1.67579304192913 0.07430640243902437 0  0.2751941921308361 0.3346083473122598 0  1.209670467133757 0.1362100266964769 0  1.025335513626278 0.1700681449722324 0  0.7562500000000001 0.41 0  1.58125 0 0  0.7567170593862014 0.2409196493502535 0  0.6926714215682891 0.1272249611432207 0  0.4139715849905988 0.3397932387114203 0  0.9840787304190477 0.2717749043358119 0  0.06875000000000001 0.41 0  0 0.35875 0  0.9281250000000001 0.06276726142697993 0  0.5507396469029935 0.3219409231578227 0  0.5504468037989405 0.09136885600634273 0  1.58125 0.41 0  1.631724228912893 0.3381867502687533 0  1.825608881788174 0.14499488549201 0  1.85625 0 0  1.44375 0 0  1.44375 0.41 0  1.85625 0.41 0  2.13125 0.41 0  0.7562500000000001 0 0  0.89375 0.41 0  0.4812500000000001 0 0  0.34375 0.41 0  0.4812500000000001 0.41 0  0.20625 0.41 0  0.06875000000000001 0 0  1.16875 0 0  0.61875 0 0  0.61875 0.41 0  1.03125 0.41 0  1.71875 0 0  1.99375 0 0  1.99375 0.41 0  1.340625 0.3489494290853124 0  1.134375 0.3489494290853123 0  1.700180620188976 0.3438659752031281 0  2.135782184673599 0.07126652247502523 0  1.668441847249787 0.2129203728327609 0  1.295782514339747 0.2378437748815763 0  0.8233075729931248 0.06842334294821524 0  1.409375 0.3520314716057996 0  0.403505597322782 0.182067236678212 0  0.378125 0.05794951541303489 0  0.3043468223249023 0.1518321115979534 0  2.129248544730567 0.1906135162504124 0  2.060771381434487 0.1989445750470348 0  2.013252586573865 0.1496169464686054 0  1.942766402200229 0.1734448904596831 0  1.895522487186454 0.06076163953489683 0  2.069553871656643 0.06605731020975725 0  1.274680914880868 0.3520219391081363 0  1.614713220494657 0.09473434380863296 0  0.7899021319497519 0.3149123934144827 0  0.69518737419149 0.0634051089053758 0  0.2971740475496061 0.2592172353407536 0  1.72990325744076 0.2380068107952482 0  1.356580098625191 0.2120393231351682 0  2.034370752044885 0.2668681600792073 0  1.51768709249349 0.3426260931494756 0  1.561883724969884 0.1650446847858835 0  1.197344062229598 0.2523725417393646 0  1.804085235518364 0.3468178408964637 0  1.817887819205233 0.2589243285818559 0  1.905897727272727 0.3485060975609756 0  0.6719798073392919 0.2688965171178177 0  0 0.05125 0  0.653125 0.35875 0  0.6396896119294488 0.1627615407790282 0  0.4274150154087412 0.1242548552168279 0  1.192836486056382 0.3562350748565544 0  0.8279124365364005 0.183856489168822 0  1.097485222388854 0.2083571153401724 0  1.28257088594801 0.2944411014911587 0  1.474860187679412 0.2504218616229368 0  1.406767003493824 0.2829282258560709 0  0.446875 0.04619219810344041 0  0.515625 0.04585361801037557 0  0.592043440706648 0.05125 0  1.845656689180403 0.1998310418452388 0  2.144958525570388 0.2909790873294231 0  0.6171090763650112 0.2492366900333857 0  2.2 0.15375 0  0.5145586920831158 0.3648371739579888 0  1.57794966442982 0.3540357145964566 0  0.721875 0.3633107922168974 0  0.0496154796471391 0.333125 0  0.5843750000000001 0.3662560860076676 0  0.5810878747760798 0.1474002776121195 0  1.508991196088596 0.1421783375065625 0  0.8840670607017558 0.2640994375393898 0  0.09776612425612034 0.2204896805326566 0  1.50436820029908 0.06143401634903343 0  1.223857000523521 0.0823554862453532 0  1.153316824384777 0.1289850171317837 0  2.148922302309752 0.1258841779285271 0  0.309375 0.04312325590431198 0  1.621993280276081 0.2841214267927899 0  1.550118654119087 0.2461998729100966 0  1.327182649291491 0.1216967252533594 0  1.051977450479407 0.1221382572915816 0  1.753125 0.04556020050186112 0  1.271875 0.04556020050186116 0  0.9816084133102366 0.05126138213476004 0  1.039051841454368 0.0572224914831029 0  0.9719230514536006 0.3480477870845102 0  1.94956388244759 0.1180512551534177 0  1.949997712993411 0.04965831614304109 0  1.771961817615021 0.1530278789497521 0  1.909246823951428 0.2812757146784527 0  0.2459536687882397 0.04668633953831142 0  1.948575539857022 0.2445328248721197 0  1.697271520964565 0.1233917627620729 0  0.7964897648514618 0.1211426571931604 0  1.065625 0.3689344961371042 0  1.085849084308977 0.3170853572226867 0  0.4702981435440001 0.260434880697798 0  1.577403511714593 0.05463601888079143 0  0.05622663515370135 0.05493816910862376 0  0.3267207591099919 0.3566194660323104 0  0.9003051618565143 0.3564049499960621 0  1.751571320346033 0.3651102912045228 0  0.1583785085108421 0.2994699345738728 0  0.1455283439499995 0.3542795598723423 0  2.2 0.35875 0  0.2347662494194072 0.298325008655211 0  0.1527284455616188 0.1065771775690181 0  0.1382139529076665 0.05427454456341477 0  0.8749341636311069 0.05110114999892954 0  0.643661668713109 0.05693499781019222 0  1.466879772203159 0.3611261772912453 0  1.990280163552011 0.3564754268533217 0  1.17471064520912 0.2990917256188288 0  0.5202693090594349 0.206382495511728 0  0 0.25625 0  2.2 0.25625 0  2.2 0.05125 0  0 0.15375 0  1.853978576207987 0.35875 0  0.9787513713939683 0.1487523696999336 0  0.240625 0.3722153812029779 0  1.515638456102889 0.2882700110184686 0  0.09048297387599738 0.3637717362208066 0  2.150453692751374 0.2387066338105111 0  1.323782677156475 0.04897634338873398 0  0.8074131292871642 0.3624701995505916 0  1.409375 0.03715320121951221 0  1.406484531114799 0.1087852750766809 0  1.134375 0.03715320121951218 0  1.627401732573545 0.04552157221025036 0  0.1170173172005315 0.1427610859166811 0  2.045405893604797 0.1105340662939892 0  1.255408269734577 0.1577307500159216 0  2.028125 0.03707597992059326 0  0.4743610090857199 0.1421513964721819 0  0.9354010469015898 0.250631300585664 0  0.04420832937638274 0.128125 0  0.8922386349349938 0.0992956419364831 0  0.1197849154434487 0.2663398672460083 0  1.248258025468107 0.2565907092181813 0  0.3746885856929528 0.370723531618974 0  1.203125 0.0366132337404304 0  0.5724622277005015 0.2751253816079333 0  0.3365425205162783 0.08395777655057959 0  2.072662025974815 0.2975086504196739 0  0.4581080832182547 0.3648371739579888 0  0.3874522734668214 0.2295447548840689 0  0.7827853612484443 0.04106550386289586 0  1.887722846421017 0.1760882698830035 0  1.472640588990488 0.1118278026240017 0  1.865937103925594 0.2604137786483804 0  1.463913572748262 0.2030442564990043 0  1.376426316059077 0.3186741374914345 0  0.6641993820150034 0.3141688596240831 0  0.2943117490824315 0.2130987422685822 0  0.3478153998082709 0.1666571081082676 0  0.3427990510599805 0.2575950027870776 0  0.7997118993855807 0.2216171933356366 0  
[...]
<PointData  Vectors="f_31"> 
<DataArray  type="Float64"  Name="f_31"  NumberOfComponents="3" format="ascii">9.6074856747893918e-07 -8.5729634568102286e-07 0.0000000000000000e+00  -3.8632748084634990e-06 1.5538807340278213e-06 0.0000000000000000e+00  3.9140502835783199e-06 8.2384242748112267e-08 0.0000000000000000e+00  -1.7926241297497680e-05 1.7478564127219331e-07 0.0000000000000000e+00  4.7803532983947480e-05 -4.3348943640283100e-05 0.0000000000000000e+00  5.5175879848004661e-05 -2.1538058017770516e-05 0.0000000000000000e+00  8.7666578221653227e-05 2.6358772413212300e-05 0.0000000000000000e+00  1.4073148692673462e-05 -5.0930811079665143e-06 0.0000000000000000e+00  -1.1433240542807349e-05 -1.3800599523299220e-05 0.0000000000000000e+00  -1.0201595516993804e-05 3.8969348741709033e-06 0.0000000000000000e+00  2.9108648691066591e-06 6.9805676162509453e-06 0.0000000000000000e+00  -5.5132755908356674e-06 -6.0872544724876082e-06 0.0000000000000000e+00  1.4537524992134373e-05 6.0218708271784801e-06 0.0000000000000000e+00  8.4533522730590664e-06 1.3771641480781431e-06 0.0000000000000000e+00  -3.3474675842687355e-06 -1.0484863492834690e-07 0.0000000000000000e+00  -9.5555239152998555e-07 -2.9456134689613607e-08 0.0000000000000000e+00  1.5000039358163277e+00 1.1990572968710668e-06 0.0000000000000000e+00  -9.9767733825120714e-06 3.4543227384908437e-08 0.0000000000000000e+00  1.3938856044284769e-06 -1.2043169270112363e-08 0.0000000000000000e+00  -2.7251701567318563e-06 2.9893307154261415e-06 0.0000000000000000e+00  -1.5230951753328142e-05 -2.1375523361057677e-06 0.0000000000000000e+00  -1.7256136911177306e-06 -4.1689409649340035e-07 0.0000000000000000e+00  -1.3474389344499159e-06 1.0693615608271018e-07 0.0000000000000000e+00  -1.9536981195398244e-07 5.0835745482155321e-08 0.0000000000000000e+00  -6.4878818808933645e-06 -2.0817025142837593e-07 0.0000000000000000e+00  -4.7192478934047713e-06 -4.9140998612621081e-08 0.0000000000000000e+00  -1.7358175921727251e-06 -3.1610497635941331e-07 0.0000000000000000e+00  -3.7432587791687424e-06 8.5788708077305310e-08 0.0000000000000000e+00  -3.5317805884910624e-06 -4.8902030930366239e-08 0.0000000000000000e+00  1.0758583567971152e+00 3.3542452117063506e-05 0.0000000000000000e+00  1.0757721388699897e+00 2.9527175046343350e-05 0.0000000000000000e+00  1.0748277158714126e+00 -1.4019161983893900e-03 0.0000000000000000e+00  1.0757300653900119e+00 -1.1367071843525789e-04 0.0000000000000000e+00  1.0756069439807998e+00 5.0780539024086438e-06 0.0000000000000000e+00  1.0763266740944595e+00 1.0651157585008821e-04 0.0000000000000000e+00  1.0250818642777735e+00 -1.2824051509150726e-02 0.0000000000000000e+00  1.0757033205685047e+00 7.8221071772778498e-06 0.0000000000000000e+00  7.9646680795732373e-08 -2.0157673049649824e-07 0.0000000000000000e+00  -8.3323847641530845e-07 2.0111723902082757e-07 0.0000000000000000e+00  1.0756116927069324e+00 -6.5688999130197813e-04 0.0000000000000000e+00  -8.1851288743605820e-06 -1.3115585929950850e-07 0.0000000000000000e+00  -4.4174936395526779e-06 5.2093475345219185e-07 0.0000000000000000e+00  -7.5815257792914638e-06 -4.5209353042871065e-08 0.0000000000000000e+00  1.0758059841664969e+00 4.0801087258192829e-05 0.0000000000000000e+00  -1.6519945199378261e-06 -1.1247629533443731e-07 0.0000000000000000e+00  -5.6941037534225371e-06 2.2439781643110794e-07 0.0000000000000000e+00  -6.2156846971037094e-07 1.1933180922216359e-08 0.0000000000000000e+00  1.0758966687303104e+00 -4.4004790670759008e-04 0.0000000000000000e+00  -2.7166495084447177e-06 4.8551260895381104e-08 0.0000000000000000e+00  1.3179267494764332e-06 1.5940943368347519e-08 0.0000000000000000e+00  2.2991298585784526e-06 -3.9343150420472183e-08 0.0000000000000000e+00  -8.5976070730551005e-06 2.1214421622248028e-07 0.0000000000000000e+00  2.6584839065834643e-05 -1.6322750904465510e-05 0.0000000000000000e+00  2.8803168975041318e-05 6.7657053249409466e-06 0.0000000000000000e+00  1.5687063770142230e-07 7.3093367307773272e-08 0.0000000000000000e+00  1.0755812241514260e+00 -4.8964262687491728e-05 0.0000000000000000e+00  -1.6611001266591914e-06 -9.1387117786230895e-08 0.0000000000000000e+00  1.0757797054404121e+00 -5.6340842643340398e-05 0.0000000000000000e+00  1.0756847769304854e+00 -3.2131962082224049e-05 0.0000000000000000e+00  1.0756354649994921e+00 -7.2635023610013858e-05 0.0000000000000000e+00  1.0755813163614665e+00 -1.8497062631587076e-04 0.0000000000000000e+00  1.0758829662855414e+00 8.7591677648888387e-05 0.0000000000000000e+00  1.2986545898518502e+00 -2.5456089684711752e-01 0.0000000000000000e+00  1.0756872675297551e+00 -5.8139660181137046e-05 0.0000000000000000e+00  1.0758421980675903e+00 1.6024504481723504e-04 0.0000000000000000e+00  1.0756095760299267e+00 -7.1869805202719158e-06 0.0000000000000000e+00  1.0786323513167910e+00 -4.4025183148634151e-03 0.0000000000000000e+00  1.0744930981865832e+00 1.0708473320868714e-03 0.0000000000000000e+00  1.1294737171250360e+00 2.8586572408629229e-01 0.0000000000000000e+00  1.1249982603237267e+00 1.6237332380040292e-06 0.0000000000000000e+00  1.1249895173217617e+00 -1.3634045892229678e-08 0.0000000000000000e+00  1.0757586411713764e+00 3.6497726811432036e-05 0.0000000000000000e+00  1.0879670161968975e+00 2.9098030359688467e-02 0.0000000000000000e+00  1.0692193081547308e+00 -3.7649021815095388e-03 0.0000000000000000e+00  1.1030776026432931e+00 -3.5003589719442008e-02 0.0000000000000000e+00  1.0764905651428081e+00 -9.8295696492830273e-04 0.0000000000000000e+00  1.0755978814501015e+00 1.9621231457968654e-04 0.0000000000000000e+00  1.0754997375094677e+00 1.1735017097328702e-04 0.0000000000000000e+00  1.0754843483964158e+00 -8.4119931123154754e-06 0.0000000000000000e+00  1.0751634687669023e+00 -4.1621493807709564e-04 0.0000000000000000e+00  1.0749253995330779e+00 4.8542222047028775e-04 0.0000000000000000e+00  1.0758001909390218e+00 -7.5914228463049875e-05 0.0000000000000000e+00  1.0755530927299988e+00 1.5693869307237745e-04 0.0000000000000000e+00  1.0755718311171920e+00 -3.6656291098742485e-05 0.0000000000000000e+00  1.0757712135672830e+00 1.2431836799429709e-04 0.0000000000000000e+00  1.0756963612729213e+00 7.5694520119528339e-04 0.0000000000000000e+00  1.0756663157678521e+00 -1.9267701772663926e-04 0.0000000000000000e+00  1.0756786792023705e+00 1.6746927687969336e-05 0.0000000000000000e+00  1.0756735053852815e+00 -1.0830091105314286e-04 0.0000000000000000e+00  1.0753085572801426e+00 -3.5758602021780016e-04 0.0000000000000000e+00  1.0754607396836768e+00 1.3553711703416662e-04 0.0000000000000000e+00  1.0756779006409860e+00 1.5427751340756463e-05 0.0000000000000000e+00  1.1953893727943607e+00 2.3326943441282280e-01 0.0000000000000000e+00  1.0757745608340972e+00 4.7757900228178986e-05 0.0000000000000000e+00  2.5439944209420251e-01 -2.4895161427277515e-01 0.0000000000000000e+00  1.0753812503812337e+00 -5.5573457394423708e-04 0.0000000000000000e+00  1.0757360900717590e+00 -3.3120470897852465e-05 0.0000000000000000e+00  1.2902933420813198e+00 3.0902734810159010e-01 0.0000000000000000e+00  1.0757206916829991e+00 4.3103308501916393e-05 0.0000000000000000e+00  1.5726130623738925e+00 9.7248510573057403e-02 0.0000000000000000e+00  1.1564727856294763e+00 -2.3363005787212804e-01 0.0000000000000000e+00  -6.4037968409006823e-07 -6.8270205097836664e-08 0.0000000000000000e+00  1.0738817902636031e+00 7.7133583587364986e-04 0.0000000000000000e+00  -3.4823491470606943e-06 1.0813736108427287e-07 0.0000000000000000e+00  -8.5125066796282693e-06 -1.1805174390166605e-07 0.0000000000000000e+00  1.0758344285301240e+00 -4.4974077731165417e-05 0.0000000000000000e+00  -7.9045716896103963e-06 3.1628214815616971e-06 0.0000000000000000e+00  1.0752030474406065e+00 -1.6337507490221757e-04 0.0000000000000000e+00  -5.0443734812135880e-06 -1.9824846233588305e-08 0.0000000000000000e+00  -2.1883736027988205e-06 -4.3723257756188273e-09 0.0000000000000000e+00  1.0757527267410387e+00 -1.8749863473622132e-04 0.0000000000000000e+00  5.6560031902819701e-07 6.2052766243245648e-07 0.0000000000000000e+00  1.0573814751509949e+00 -1.3301637318507623e-01 0.0000000000000000e+00  1.5009686383579144e+00 -2.8984270365991460e-01 0.0000000000000000e+00  1.0756723915001094e+00 -1.4020056880425822e-04 0.0000000000000000e+00  1.3395168637111687e+00 -1.0993078088484587e-01 0.0000000000000000e+00  1.0688809048965766e+00 -1.9962945323337686e-02 0.0000000000000000e+00  1.3736361780836674e+00 1.2045075369277977e-01 0.0000000000000000e+00  1.0623363324649628e+00 9.4306596076357968e-03 0.0000000000000000e+00  1.0756407637165049e+00 2.6192956993092125e-05 0.0000000000000000e+00  1.0747716421542650e+00 -4.7152623543648980e-04 0.0000000000000000e+00  -6.6069111114689153e-07 1.6102443499309413e-07 0.0000000000000000e+00  1.0756055364555219e+00 -1.4099911141088068e-04 0.0000000000000000e+00  1.0757416159598563e+00 -2.1664538349089622e-04 0.0000000000000000e+00  1.0757125836663113e+00 3.0839612937758980e-05 0.0000000000000000e+00  1.0755493636131932e+00 -6.2415294789284149e-06 0.0000000000000000e+00  1.0753353608623843e+00 -2.1492680153908266e-04 0.0000000000000000e+00  -4.6023434352285160e-06 -5.6348732661441230e-08 0.0000000000000000e+00  1.0757422039034534e+00 5.7035536769061794e-05 0.0000000000000000e+00  1.0745414971567908e+00 -1.6954355345735303e-05 0.0000000000000000e+00  1.4566954024103320e+00 1.8356956660047549e-02 0.0000000000000000e+00  1.0756838454455082e+00 3.5360515593264589e-05 0.0000000000000000e+00  1.0756459705216177e+00 -9.3761477418107393e-05 0.0000000000000000e+00  -1.6726116225646634e-06 -2.4176093983297173e-09 0.0000000000000000e+00  -1.5743179604993558e-05 -3.0032926718169038e-09 0.0000000000000000e+00  1.0758220894256654e+00 -9.0096876333908501e-04 0.0000000000000000e+00  1.0750002364267368e+00 -3.1541974858185335e-04 0.0000000000000000e+00  1.1780051123301742e+00 -7.1262742031481710e-02 0.0000000000000000e+00  1.0758282159422332e+00 -6.0493353879504691e-05 0.0000000000000000e+00  -1.5333910465544012e-06 3.4038809868549845e-06 0.0000000000000000e+00  6.5624992980097374e-01 4.2664974475142415e-07 0.0000000000000000e+00  1.0739496330743674e+00 -6.9519660384486390e-05 0.0000000000000000e+00  1.0851917273668834e+00 -1.1262974518988916e-02 0.0000000000000000e+00  1.0775630648995773e+00 6.7582518960064850e-03 0.0000000000000000e+00  -6.6262153914228717e-06 3.5544459913878166e-07 0.0000000000000000e+00  1.0742077275536335e+00 8.5421852990257658e-04 0.0000000000000000e+00  1.0757322627820709e+00 -2.6729075332804476e-05 0.0000000000000000e+00  -4.5579903444275762e-06 1.5645803262897365e-07 0.0000000000000000e+00  -1.2290555196439528e-05 1.1700941417642613e-07 0.0000000000000000e+00  -7.7606484960013989e-06 -1.8026602914878177e-07 0.0000000000000000e+00  5.5328921998005717e-07 -4.7915126740481453e-08 0.0000000000000000e+00  -4.8305412696663009e-06 -1.1467006834771931e-07 0.0000000000000000e+00  -1.0837147811010134e-06 -5.0676481251888376e-08 0.0000000000000000e+00  -8.6212087026509704e-07 -1.5926206467844820e-07 0.0000000000000000e+00  -1.9118959954972221e-06 -6.2916998142783380e-07 0.0000000000000000e+00  5.3213272575662596e-06 -2.0181414597918055e-06 0.0000000000000000e+00  -1.3976015363801624e-05 2.8567320728256074e-07 0.0000000000000000e+00  -1.3869382751746922e-05 -8.3773377237886842e-06 0.0000000000000000e+00  6.3593933742077852e-06 -6.1488320725839511e-06 0.0000000000000000e+00  4.4987329854844795e-08 -9.1544717430929067e-08 0.0000000000000000e+00  -8.4013123881199864e-06 1.6502410086739594e-08 0.0000000000000000e+00  -5.6073790014937654e-06 1.0395222566836882e-07 0.0000000000000000e+00  -9.7137632661646128e-07 1.4202849816982547e-08 0.0000000000000000e+00  -8.9122214954465352e-06 -7.6417916068910315e-08 0.0000000000000000e+00  -2.5709816445845586e-06 -7.2859023320503551e-08 0.0000000000000000e+00  -2.5154388296586742e-06 -3.8903509544022530e-07 0.0000000000000000e+00  1.0711798544546047e+00 7.8920006656671372e-04 0.0000000000000000e+00  1.0740464996230961e+00 7.6273745801725261e-05 0.0000000000000000e+00  1.0744719835425369e+00 -7.8635176693717557e-04 0.0000000000000000e+00  1.0743478619909290e+00 -4.1193775121446666e-05 0.0000000000000000e+00  1.0757600883472318e+00 -1.4066577834096786e-06 0.0000000000000000e+00  1.0757350093354190e+00 -1.1629389834479511e-05 0.0000000000000000e+00  1.0734916148733749e+00 -6.0663796150335874e-04 0.0000000000000000e+00  1.0723093591829780e+00 7.4590799127859781e-04 0.0000000000000000e+00  9.0094238454802411e-01 6.2872954964102848e-02 0.0000000000000000e+00  1.2360562261792882e+00 8.7826473529648716e-02 0.0000000000000000e+00  9.3985138220313613e-01 5.0470915776371528e-01 0.0000000000000000e+00  1.0758916577841056e+00 1.5295444281592123e-04 0.0000000000000000e+00  1.0758607298669887e+00 8.3468531332976567e-05 0.0000000000000000e+00  1.0757641922303314e+00 8.8216269406553663e-05 0.0000000000000000e+00  1.0756718272489170e+00 6.1527507951799141e-06 0.0000000000000000e+00  1.0722230049208661e+00 -1.7770682538240391e-04 0.0000000000000000e+00  1.0740957063287306e+00 1.7208591928727528e-04 0.0000000000000000e+00  1.0739257416257619e+00 -1.1635332027009224e-04 0.0000000000000000e+00  1.0754174835567929e+00 -2.1930819635100588e-04 0.0000000000000000e+00  1.0761172085632473e+00 -4.6724011259247360e-04 0.0000000000000000e+00  1.0732146930789375e+00 -2.4683345001822983e-04 0.0000000000000000e+00  1.2878303918041107e+00 -4.3536712820800816e-01 0.0000000000000000e+00  1.0757675317252660e+00 5.7742567780843762e-07 0.0000000000000000e+00  1.0756976235520306e+00 2.4850324318036237e-05 0.0000000000000000e+00  1.0758313989443486e+00 -5.2714903753485725e-06 0.0000000000000000e+00  1.0736938234975180e+00 1.0886457069416381e-04 0.0000000000000000e+00  1.0757565320530513e+00 -3.4301047240001308e-05 0.0000000000000000e+00  1.0756450672699920e+00 -2.3399773157154155e-05 0.0000000000000000e+00  1.0737832461655257e+00 4.1792037175150714e-04 0.0000000000000000e+00  1.0757616170611084e+00 2.8188672797619725e-05 0.0000000000000000e+00  1.0742869468661307e+00 3.4989085968020528e-04 0.0000000000000000e+00  1.0761668454110991e+00 -2.3561099494104651e-03 0.0000000000000000e+00  6.5624767852546551e-01 3.6667838067171380e-07 0.0000000000000000e+00  1.0724596275845653e+00 -4.9327923025601275e-05 0.0000000000000000e+00  1.0736155031292363e+00 -5.2026812393562213e-04 0.0000000000000000e+00  1.0663937817473557e+00 9.4814619232414299e-02 0.0000000000000000e+00  1.0706169908903544e+00 1.4169687233923506e-03 0.0000000000000000e+00  1.0754918137086849e+00 -3.4598474252494146e-04 0.0000000000000000e+00  1.0755764939952650e+00 -4.9024227625954778e-05 0.0000000000000000e+00  1.0759569919055383e+00 -1.2704274578597977e-04 0.0000000000000000e+00  1.0756152845786588e+00 3.3832007320411554e-05 0.0000000000000000e+00  1.0756945894433223e+00 1.0542817671752090e-04 0.0000000000000000e+00  1.1102970798572458e+00 1.5493061976666368e-02 0.0000000000000000e+00  1.0727932023778135e+00 2.3853391276490044e-03 0.0000000000000000e+00  1.0691977993422206e+00 -5.1291907181364599e-04 0.0000000000000000e+00  1.0757356451927491e+00 -1.1721326115021365e-05 0.0000000000000000e+00  1.0756429741924485e+00 -1.0162451949251249e-04 0.0000000000000000e+00  1.0745540883469202e+00 -4.6628432962514833e-03 0.0000000000000000e+00  1.0760803759473119e+00 5.2688703489661606e-04 0.0000000000000000e+00  1.0831196692944252e+00 -5.5158012397738942e-03 0.0000000000000000e+00  1.0727744145723572e+00 -2.1389622632680705e-04 0.0000000000000000e+00  1.0619870817154748e+00 2.1033157918578295e-04 0.0000000000000000e+00  9.4225829441103393e-01 8.5362211499892218e-02 0.0000000000000000e+00  1.0654118595692905e+00 -1.9700542454488242e-03 0.0000000000000000e+00  1.0712665634319014e+00 2.2266461043208103e-03 0.0000000000000000e+00  1.0756713861907319e+00 4.6304438608337627e-05 0.0000000000000000e+00  1.0757838192382843e+00 -2.1288674853984989e-04 0.0000000000000000e+00  1.2255582320522498e+00 1.5571158424340573e-01 0.0000000000000000e+00  1.0744170976705552e+00 4.8887551835775423e-04 0.0000000000000000e+00  1.0753797731118879e+00 -2.1673334065853462e-05 0.0000000000000000e+00  1.0757169246344673e+00 2.2287239627793677e-05 0.0000000000000000e+00  1.0758529887129309e+00 2.9483013929431539e-04 0.0000000000000000e+00  1.3563602801397840e+00 8.4207183874009564e-02 0.0000000000000000e+00  1.0755796845688401e+00 -8.6634244500757458e-07 0.0000000000000000e+00  1.0756334479469074e+00 -1.1777302900534132e-05 0.0000000000000000e+00  1.0758783897392215e+00 1.2128789194107287e-04 0.0000000000000000e+00  1.0756215368115492e+00 -9.3124427782436276e-05 0.0000000000000000e+00  1.0612122249353599e+00 5.6244611186276729e-04 0.0000000000000000e+00  1.0597704900397966e+00 -5.0155756162204848e-04 0.0000000000000000e+00  1.0706100845616306e+00 -3.8283964770618301e-04 0.0000000000000000e+00  1.0732209146565681e+00 -3.1108490788260178e-05 0.0000000000000000e+00  1.0743130283677413e+00 -8.1538180169096552e-05 0.0000000000000000e+00  1.0757041959031410e+00 -2.8496779809284067e-06 0.0000000000000000e+00  1.0622107066943713e+00 -1.1490488658028152e-03 0.0000000000000000e+00  1.0758303174483166e+00 1.0206828835076459e-05 0.0000000000000000e+00  1.0758372570051697e+00 2.0098286673892673e-05 0.0000000000000000e+00  1.3170523566525065e+00 -8.4914240013713241e-02 0.0000000000000000e+00  1.0757430765093399e+00 -1.7554263346976257e-05 0.0000000000000000e+00  1.0757610382875307e+00 1.4270890196917727e-05 0.0000000000000000e+00  1.0753630392927473e+00 -3.2517233963638676e-04 0.0000000000000000e+00  1.0492027990001267e+00 4.0308340742046655e-04 0.0000000000000000e+00  1.0755731958557797e+00 -7.2185027176964646e-05 0.0000000000000000e+00  1.0583585400659554e+00 -4.9480696443619236e-02 0.0000000000000000e+00  1.0706017787546798e+00 -3.8701231751388129e-04 0.0000000000000000e+00  7.4208525785174240e-01 -6.3966548486778463e-02 0.0000000000000000e+00  1.3407227803706772e+00 -8.9447538639564630e-02 0.0000000000000000e+00  1.0679201647828691e+00 8.6155535339388345e-04 0.0000000000000000e+00  1.0592623494488971e+00 1.6739659815836608e-05 0.0000000000000000e+00  1.5415293323989274e+00 4.5351781059920504e-01 0.0000000000000000e+00  9.7990750773886581e-01 1.8646559035570845e-01 0.0000000000000000e+00  1.0668748317445982e+00 -1.4174892028255274e-04 0.0000000000000000e+00  1.8574540410048883e+00 1.8721362387130774e-01 0.0000000000000000e+00  1.4953345749690068e+00 -5.0087185437872517e-01 0.0000000000000000e+00  9.7231552900534590e-01 -1.8460209483743528e-01 0.0000000000000000e+00  1.0654578508620178e+00 -6.5989635971961823e-04 0.0000000000000000e+00  1.0684188142348285e+00 -1.7617202401329536e-04 0.0000000000000000e+00  1.0652475719099603e+00 -5.6776547267859475e-05 0.0000000000000000e+00  1.0706126682654840e+00 -2.2235375204931798e-04 0.0000000000000000e+00  1.0757069024843076e+00 1.4473704492025379e-05 0.0000000000000000e+00  1.0568194956957320e+00 -6.7655669913837865e-03 0.0000000000000000e+00  1.4062433356712518e+00 1.3768832469541537e-06 0.0000000000000000e+00  1.0761975958292849e+00 -2.0513317325054323e-04 0.0000000000000000e+00  1.0676901658539084e+00 4.4814702503946917e-04 0.0000000000000000e+00  1.4062423962809241e+00 4.7886373465947818e-07 0.0000000000000000e+00  1.0697609935482253e+00 -4.0549403081582049e-04 0.0000000000000000e+00  1.0755765295154687e+00 -1.3231886077938915e-04 0.0000000000000000e+00  1.2149016209516592e+00 7.8277194934732702e-02 0.0000000000000000e+00  1.0755356705242640e+00 -1.0648176214128464e-05 0.0000000000000000e+00  7.2360820155794570e-01 6.1766413945526857e-02 0.0000000000000000e+00  1.0759158961893334e+00 1.2624200447631319e-05 0.0000000000000000e+00  1.0664583107413359e+00 6.6441470139291597e-04 0.0000000000000000e+00  1.0633873569244772e+00 9.3146760965562129e-04 0.0000000000000000e+00  1.0323448342450749e+00 2.4585984160893283e-05 0.0000000000000000e+00  1.0757661949154684e+00 -1.1271890275964972e-04 0.0000000000000000e+00  1.0337375351417764e+00 1.1760041145282466e-04 0.0000000000000000e+00  1.0603269155936