<?xml version="1.0"?>
<VTKFile type="UnstructuredGrid"  version="0.1"  >
<UnstructuredGrid>
<Piece  NumberOfPoints="2446" NumberOfCells="4585">
<Points>
<DataArray  type="Float64"  NumberOfComponents="3"  format="ascii">0 0.41 0  0 0 0  2.2 0 0  2.2 0.41 0  0.2404508497187474 0.2293892626146237 0  0.25 0.2 0  0.2404508497187474 0.1706107373853764 0  0.2154508497187474 0.1524471741852423 0  0.1845491502812526 0.1524471741852423 0  0.1595491502812526 0.1706107373853764 0  0.15 0.2 0  0.1595491502812526 0.2293892626146237 0  0.1845491502812527 0.2475528258147577 0  0.2154508497187474 0.2475528258147577 0  1.1 0 0  1.1 0.41 0  0 0.205 0  0.55 0 0  0.55 0.41 0  0.275 0 0  0.275 0.41 0  1.65 0.41 0  1.65 0 0  0.8250000000000001 0.41 0  0.8250000000000001 0 0  1.375 0 0  1.375 0.41 0  1.925 0 0  1.925 0.41 0  1.5125 0.205 0  1.7875 0.205 0  0.6875 0.205 0  0.9625000000000001 0.205 0  1.2375 0.205 0  2.2 0.205 0  0.4687002074688797 0.2068568464730291 0  1.99375 0.2152743902439024 0  2.0625 0 0  2.0625 0.41 0  2.2 0.3075 0  0.4125 0 0  0.4125 0.41 0  1.7875 0.41 0  1.375 0.1486128048780488 0  1.5125 0 0  1.7875 0 0  1.5125 0.41 0  0.8250000000000001 0.2613871951219511 0  0.9625000000000001 0.41 0  0.9625000000000001 0 0  0.6875 0.41 0  0.6875 0 0  0.1375 0 0  0.1375 0.41 0  1.2375 0 0  1.1 0.1486128048780487 0  1.2375 0.41 0  1.65 0.1486128048780487 0  1.126715909090909 0.2793064024390244 0  1.676715909090909 0.2793064024390244 0  0.8517159090909092 0.1306935975609756 0  1.348284090909091 0.2793064024390244 0  0.34375 0.3032389320646208 0  1.894702181800738 0.1282910975492754 0  2.092797818199262 0.1282910975492754 0  1.85625 0.3075 0  0.61875 0.3075 0  0.61875 0.1025 0  0.3648540804333487 0.1240075933101478 0  0 0.3075 0  0 0.1025 0  2.099172119769978 0.25625 0  0.48125 0.09238439620688085 0  0.5781001037344399 0.2059284232365146 0  0.48125 0.3196743479159776 0  0.7265881057911006 0.3055240343720796 0  1.99375 0.08395950269330846 0  1.459960956013612 0.3075 0  1.569025960719943 0.2986889805672169 0  0.75625 0.08213100772579164 0  1.03125 0.3278689922742084 0  0.923871252904788 0.3078247185783941 0  1.959375 0.3126371951219512 0  1.749222215368287 0.1025 0  1.275777784631713 0.1025 0  2.2 0.1025 0  1.225938124459196 0.3075 0  1.550777784631713 0.1025 0  1.000777784631713 0.1025 0  1.44375 0.07430640243902442 0  1.16875 0.07430640243902437 0  1.899250267340833 0.2229966846119207 0  0.1020898364287272 0.3140258291809757 0  1.766482954545455 0.2934032012195123 0  0.3405058858996321 0.2119987970531874 0  0.7710785630958338 0.1710968191298857 0  1.046078563095834 0.2389031808701144 0  0.2 0.3400647632937836 0  1.421109702350723 0.2261157654379721 0  0.2800464974185557 0.08982544815605742 0  0.098916018031319 0.09171660955420841 0  2.13125 0 0  2.118919042110979 0.3422084711244843 0  1.30625 0.41 0  0.89375 0 0  1.597888256393107 0.2173787389261347 0  0.20625 0 0  1.829299675393195 0.07400700849299596 0  1.71875 0.41 0  1.16875 0.41 0  2.038220665644273 0.332420740103091 0  0.34375 0 0  0.417496017710808 0.2696595573092803 0  0.2 0.07687845740457822 0  0.9295982307099278 0.1343158415898188 0  0.07390688010811153 0.1697064032433452 0  0.5238366813727013 0.2578302467013575 0  0.05452951551825875 0.25625 0  0.5229630068078351 0.1548816096928243 0  1.452769549894695 0.1548122580621249 0  1.369219062229598 0.07430640243902442 0  1.30625 0 0  0.8504409521244898 0.3356935975609756 0  0.8821881244591965 0.205 0  1.720943423819132 0.1714577452753128 0  1.157188124459196 0.205 0  1.094219062229598 0.07430640243902437 0  1.03125 0 0  1.304056576180868 0.1714577452753128 0  1.67579304192913 0.07430640243902437 0  0.2751941921308361 0.3346083473122598 0  1.209670467133757 0.1362100266964769 0  1.025335513626278 0.1700681449722324 0  0.7562500000000001 0.41 0  1.58125 0 0  0.7567170593862014 0.2409196493502535 0  0.6926714215682891 0.1272249611432207 0  0.4139715849905988 0.3397932387114203 0  0.9840787304190477 0.2717749043358119 0  0.06875000000000001 0.41 0  0 0.35875 0  0.9281250000000001 0.06276726142697993 0  0.5507396469029935 0.3219409231578227 0  0.5504468037989405 0.09136885600634273 0  1.58125 0.41 0  1.631724228912893 0.3381867502687533 0  1.825608881788174 0.14499488549201 0  1.85625 0 0  1.44375 0 0  1.44375 0.41 0  1.85625 0.41 0  2.13125 0.41 0  0.7562500000000001 0 0  0.89375 0.41 0  0.4812500000000001 0 0  0.34375 0.41 0  0.4812500000000001 0.41 0  0.20625 0.41 0  0.06875000000000001 0 0  1.16875 0 0  0.61875 0 0  0.61875 0.41 0  1.03125 0.41 0  1.71875 0 0  1.99375 0 0  1.99375 0.41 0  1.340625 0.3489494290853124 0  1.134375 0.3489494290853123 0  1.700180620188976 0.3438659752031281 0  2.135782184673599 0.07126652247502523 0  1.668441847249787 0.2129203728327609 0  1.295782514339747 0.2378437748815763 0  0.8233075729931248 0.06842334294821524 0  1.409375 0.3520314716057996 0  0.403505597322782 0.182067236678212 0  0.378125 0.05794951541303489 0  0.3043468223249023 0.1518321115979534 0  2.129248544730567 0.1906135162504124 0  2.060771381434487 0.1989445750470348 0  2.013252586573865 0.1496169464686054 0  1.942766402200229 0.1734448904596831 0  1.895522487186454 0.06076163953489683 0  2.069553871656643 0.06605731020975725 0  1.274680914880868 0.3520219391081363 0  1.614713220494657 0.09473434380863296 0  0.7899021319497519 0.3149123934144827 0  0.69518737419149 0.0634051089053758 0  0.2971740475496061 0.2592172353407536 0  1.72990325744076 0.2380068107952482 0  1.356580098625191 0.2120393231351682 0  2.034370752044885 0.2668681600792073 0  1.51768709249349 0.3426260931494756 0  1.561883724969884 0.1650446847858835 0  1.197344062229598 0.2523725417393646 0  1.804085235518364 0.3468178408964637 0  1.817887819205233 0.2589243285818559 0  1.905897727272727 0.3485060975609756 0  0.6719798073392919 0.2688965171178177 0  0 0.05125 0  0.653125 0.35875 0  0.6396896119294488 0.1627615407790282 0  0.4274150154087412 0.1242548552168279 0  1.192836486056382 0.3562350748565544 0  0.8279124365364005 0.183856489168822 0  1.097485222388854 0.2083571153401724 0  1.28257088594801 0.2944411014911587 0  1.474860187679412 0.2504218616229368 0  1.406767003493824 0.2829282258560709 0  0.446875 0.04619219810344041 0  0.515625 0.04585361801037557 0  0.592043440706648 0.05125 0  1.845656689180403 0.1998310418452388 0  2.144958525570388 0.2909790873294231 0  0.6171090763650112 0.2492366900333857 0  2.2 0.15375 0  0.5145586920831158 0.3648371739579888 0  1.57794966442982 0.3540357145964566 0  0.721875 0.3633107922168974 0  0.0496154796471391 0.333125 0  0.5843750000000001 0.3662560860076676 0  0.5810878747760798 0.1474002776121195 0  1.508991196088596 0.1421783375065625 0  0.8840670607017558 0.2640994375393898 0  0.09776612425612034 0.2204896805326566 0  1.50436820029908 0.06143401634903343 0  1.223857000523521 0.0823554862453532 0  1.153316824384777 0.1289850171317837 0  2.148922302309752 0.1258841779285271 0  0.309375 0.04312325590431198 0  1.621993280276081 0.2841214267927899 0  1.550118654119087 0.2461998729100966 0  1.327182649291491 0.1216967252533594 0  1.051977450479407 0.1221382572915816 0  1.753125 0.04556020050186112 0  1.271875 0.04556020050186116 0  0.9816084133102366 0.05126138213476004 0  1.039051841454368 0.0572224914831029 0  0.9719230514536006 0.3480477870845102 0  1.94956388244759 0.1180512551534177 0  1.949997712993411 0.04965831614304109 0  1.771961817615021 0.1530278789497521 0  1.909246823951428 0.2812757146784527 0  0.2459536687882397 0.04668633953831142 0  1.948575539857022 0.2445328248721197 0  1.697271520964565 0.1233917627620729 0  0.7964897648514618 0.1211426571931604 0  1.065625 0.3689344961371042 0  1.085849084308977 0.3170853572226867 0  0.4702981435440001 0.260434880697798 0  1.577403511714593 0.05463601888079143 0  0.05622663515370135 0.05493816910862376 0  0.3267207591099919 0.3566194660323104 0  0.9003051618565143 0.3564049499960621 0  1.751571320346033 0.3651102912045228 0  0.1583785085108421 0.2994699345738728 0  0.1455283439499995 0.3542795598723423 0  2.2 0.35875 0  0.2347662494194072 0.298325008655211 0  0.1527284455616188 0.1065771775690181 0  0.1382139529076665 0.05427454456341477 0  0.8749341636311069 0.05110114999892954 0  0.643661668713109 0.05693499781019222 0  1.466879772203159 0.3611261772912453 0  1.990280163552011 0.3564754268533217 0  1.17471064520912 0.2990917256188288 0  0.5202693090594349 0.206382495511728 0  0 0.25625 0  2.2 0.25625 0  2.2 0.05125 0  0 0.15375 0  1.853978576207987 0.35875 0  0.9787513713939683 0.1487523696999336 0  0.240625 0.3722153812029779 0  1.515638456102889 0.2882700110184686 0  0.09048297387599738 0.3637717362208066 0  2.150453692751374 0.2387066338105111 0  1.323782677156475 0.04897634338873398 0  0.8074131292871642 0.3624701995505916 0  1.409375 0.03715320121951221 0  1.406484531114799 0.1087852750766809 0  1.134375 0.03715320121951218 0  1.627401732573545 0.04552157221025036 0  0.1170173172005315 0.1427610859166811 0  2.045405893604797 0.1105340662939892 0  1.255408269734577 0.1577307500159216 0  2.028125 0.03707597992059326 0  0.4743610090857199 0.1421513964721819 0  0.9354010469015898 0.250631300585664 0  0.04420832937638274 0.128125 0  0.8922386349349938 0.0992956419364831 0  0.1197849154434487 0.2663398672460083 0  1.248258025468107 0.2565907092181813 0  0.3746885856929528 0.370723531618974 0  1.203125 0.0366132337404304 0  0.5724622277005015 0.2751253816079333 0  0.3365425205162783 0.08395777655057959 0  2.072662025974815 0.2975086504196739 0  0.4581080832182547 0.3648371739579888 0  0.3874522734668214 0.2295447548840689 0  0.7827853612484443 0.04106550386289586 0  1.887722846421017 0.1760882698830035 0  1.472640588990488 0.1118278026240017 0  1.865937103925594 0.2604137786483804 0  1.463913572748262 0.2030442564990043 0  1.376426316059077 0.3186741374914345 0  0.6641993820150034 0.3141688596240831 0  0.2943117490824315 0.2130987422685822 0  0.3478153998082709 0.1666571081082676 0  0.3427990510599805 0.2575950027870776 0  0.7997118993855807 0.2216171933356366 0  
[...]
<PointData  Vectors="f_31"> 
<DataArray  type="Float64"  Name="f_31"  NumberOfComponents="3" format="ascii">2.1956322939289308e-06 3.6134793504361920e-08 0.0000000000000000e+00  -2.2820101518152959e-06 -2.9011476652260554e-08 0.0000000000000000e+00  3.8430462346490984e-06 -4.1280123861254833e-09 0.0000000000000000e+00  -1.6414396404628288e-05 -1.0344457770450005e-08 0.0000000000000000e+00  -4.2389309954765146e-06 -3.9487434452928582e-06 0.0000000000000000e+00  -1.4034856588308547e-06 -6.7251398306460660e-06 0.0000000000000000e+00  8.1566749213496105e-08 -5.5861516257226167e-06 0.0000000000000000e+00  -5.1199185949322464e-06 3.1724460008381725e-06 0.0000000000000000e+00  -1.7872030807737838e-06 1.7027614235621473e-06 0.0000000000000000e+00  3.1122784338616466e-06 -1.9095063227976585e-06 0.0000000000000000e+00  5.5784671408502668e-07 2.3411462057124268e-06 0.0000000000000000e+00  -1.1359590448530930e-05 -4.3784385955828339e-06 0.0000000000000000e+00  5.3308801522264221e-06 5.3912810676207561e-06 0.0000000000000000e+00  -1.3890750620061337e-05 2.6204231151802338e-08 0.0000000000000000e+00  -2.5593220568572606e-06 -1.7308335057503046e-09 0.0000000000000000e+00  5.6138377367480970e-09 -1.2829375158350858e-08 0.0000000000000000e+00  1.5000043380514694e+00 -4.9956989830500038e-07 0.0000000000000000e+00  8.4514052656612439e-06 4.1221885777950134e-07 0.0000000000000000e+00  6.8497244061289900e-06 4.8565726586041739e-07 0.0000000000000000e+00  2.2210662524351562e-06 2.2600018409727693e-07 0.0000000000000000e+00  -2.1735664011984118e-06 -1.4356395735878071e-07 0.0000000000000000e+00  3.8837096239759374e-07 -1.9359979469216094e-09 0.0000000000000000e+00  3.0625973550689256e-07 -4.8312973860158873e-09 0.0000000000000000e+00  1.7603587285843370e-06 1.2769456368867238e-08 0.0000000000000000e+00  -4.9061715050372534e-06 1.8038136465566772e-08 0.0000000000000000e+00  -3.8171552625602761e-06 3.3344497588124883e-09 0.0000000000000000e+00  -6.8861941798187645e-07 2.4758659831863279e-08 0.0000000000000000e+00  -2.9462950900565994e-06 1.3856110248504571e-08 0.0000000000000000e+00  -2.2584201002350770e-06 -5.1021785142429059e-09 0.0000000000000000e+00  1.1327758518911770e+00 5.3670348151580976e-05 0.0000000000000000e+00  1.1328622691630610e+00 2.3494878554669511e-05 0.0000000000000000e+00  1.1639612774789472e+00 -3.0620424561412694e-02 0.0000000000000000e+00  1.1331398486202593e+00 -1.3829747600626076e-03 0.0000000000000000e+00  1.1324473806657556e+00 -6.8377607970147221e-05 0.0000000000000000e+00  1.1327328134913806e+00 -4.1466470162757840e-05 0.0000000000000000e+00  -1.0915577969834318e-01 -6.5000363552856988e-02 0.0000000000000000e+00  1.1327013148645095e+00 -4.4300411943848830e-05 0.0000000000000000e+00  2.7498298628647906e-07 1.1526687743700090e-08 0.0000000000000000e+00  -9.4283592059878396e-07 -1.4654375746930857e-08 0.0000000000000000e+00  1.1314166314704484e+00 -2.7113202024523080e-05 0.0000000000000000e+00  -6.3810247700713484e-07 1.2627699017566333e-07 0.0000000000000000e+00  3.0164096554722501e-06 -2.8342554419015257e-07 0.0000000000000000e+00  -5.9917914372006512e-06 -1.1767342576508822e-09 0.0000000000000000e+00  1.1326192672747721e+00 3.4830081143217881e-05 0.0000000000000000e+00  -5.0249562151788267e-08 -6.6455059287740848e-09 0.0000000000000000e+00  -4.0992150744691554e-06 -3.0690973607108951e-09 0.0000000000000000e+00  1.0999603854810557e-06 1.6137274803812306e-08 0.0000000000000000e+00  1.1402744244291463e+00 7.3969173558000403e-04 0.0000000000000000e+00  -1.7628191704176670e-06 -1.2460360028719705e-08 0.0000000000000000e+00  2.3965346831560696e-06 -4.0351996052439919e-09 0.0000000000000000e+00  -6.8790353780319720e-06 -1.1851590891810230e-07 0.0000000000000000e+00  -1.6245986376980865e-05 5.9661817244283009e-07 0.0000000000000000e+00  -3.9012205178888296e-06 5.9548970362090996e-07 0.0000000000000000e+00  -5.4047740122299174e-06 -5.6264077215561182e-07 0.0000000000000000e+00  2.9431343063775111e-07 1.1326512793824344e-08 0.0000000000000000e+00  1.1324292722003930e+00 -3.1080273258686703e-04 0.0000000000000000e+00  -1.5450835084385942e-06 2.6035806238618967e-09 0.0000000000000000e+00  1.1328813835288261e+00 1.0317685006365827e-05 0.0000000000000000e+00  1.1327471956487101e+00 -1.2578210582558268e-04 0.0000000000000000e+00  1.1325225534552037e+00 1.0765304428054633e-04 0.0000000000000000e+00  1.1311487006598171e+00 -7.4017864145671701e-03 0.0000000000000000e+00  1.1325978333469990e+00 -2.1000705070740235e-05 0.0000000000000000e+00  1.9955668372477089e+00 -1.5204362198251192e-01 0.0000000000000000e+00  1.1326554821229091e+00 -9.9277697711488850e-05 0.0000000000000000e+00  1.1327405825957573e+00 -1.4651802943743867e-04 0.0000000000000000e+00  1.1311470320323531e+00 1.7126999879589974e-05 0.0000000000000000e+00  1.1982973658404541e+00 6.0225304644690884e-02 0.0000000000000000e+00  1.1533509933130897e+00 -9.3252022662712403e-02 0.0000000000000000e+00  1.6337982339281572e+00 1.7980553287864484e-01 0.0000000000000000e+00  1.1249990131823269e+00 -2.9553677353907237e-07 0.0000000000000000e+00  1.1249901624989138e+00 1.1802299928972896e-07 0.0000000000000000e+00  1.1326238713811194e+00 -3.9867740601391381e-05 0.0000000000000000e+00  1.5099341120917049e+00 3.4384318097188649e-01 0.0000000000000000e+00  9.5560314737446606e-01 5.3646638273178076e-03 0.0000000000000000e+00  1.4320833013552141e+00 -2.2704172436193218e-01 0.0000000000000000e+00  1.1506249505646269e+00 3.6626039365642758e-02 0.0000000000000000e+00  1.1257747267142952e+00 -7.0619499935492116e-06 0.0000000000000000e+00  1.1317756883010632e+00 -4.9310543180694075e-05 0.0000000000000000e+00  1.1320908031775374e+00 9.8355612692176632e-05 0.0000000000000000e+00  1.1050177106325669e+00 -2.8504673543696353e-02 0.0000000000000000e+00  1.1240428797994095e+00 3.6276604758266202e-06 0.0000000000000000e+00  1.1326397274034823e+00 3.7809337831288083e-04 0.0000000000000000e+00  1.1309368188498188e+00 -4.8898456796691132e-06 0.0000000000000000e+00  1.1309491404779808e+00 -2.1160539007636784e-04 0.0000000000000000e+00  1.1317067364860238e+00 -1.3288536119261657e-04 0.0000000000000000e+00  1.1312298504525424e+00 -2.4235039741972255e-04 0.0000000000000000e+00  1.1317133640397810e+00 1.7011388026760327e-05 0.0000000000000000e+00  1.1316478904308058e+00 1.3202998567648475e-04 0.0000000000000000e+00  1.1309557072095215e+00 -7.8835784121607559e-04 0.0000000000000000e+00  1.1158721093253239e+00 6.9942725953466329e-05 0.0000000000000000e+00  1.1156672047850165e+00 6.4965112814027694e-06 0.0000000000000000e+00  1.1327419748960970e+00 -1.0293318768033468e-05 0.0000000000000000e+00  1.1917910302724706e+00 2.6101648282004292e-01 0.0000000000000000e+00  1.1321782109761447e+00 3.3517371306235973e-05 0.0000000000000000e+00  -5.9336301877734210e-01 -1.7559995497993895e-02 0.0000000000000000e+00  1.1418804032566658e+00 -1.7708420717961026e-02 0.0000000000000000e+00  1.1329474842265466e+00 -4.5470281072740852e-04 0.0000000000000000e+00  1.4085648010124192e+00 2.2642398099328392e-01 0.0000000000000000e+00  1.1325217702233388e+00 -2.5444729410408598e-05 0.0000000000000000e+00  1.8781723105914065e+00 -1.1211409458700672e-01 0.0000000000000000e+00  1.1365209389448618e+00 -2.4279872606222266e-01 0.0000000000000000e+00  -5.6778639629374688e-07 1.0303419698687332e-08 0.0000000000000000e+00  1.1027638602841712e+00 1.0088436681652921e-04 0.0000000000000000e+00  -1.9143370567490738e-06 -3.5716967205760828e-09 0.0000000000000000e+00  -6.7415907154418076e-06 3.0670387172249414e-08 0.0000000000000000e+00  1.1328597269470537e+00 4.1721029629819007e-05 0.0000000000000000e+00  1.2301267633157460e-06 -4.4062957934206102e-07 0.0000000000000000e+00  1.1150746745413036e+00 -3.1213386031257024e-05 0.0000000000000000e+00  -2.6872664456002666e-06 -2.7016513088299376e-09 0.0000000000000000e+00  -2.0754579476095002e-06 2.0548513992630406e-09 0.0000000000000000e+00  1.1200849508499733e+00 1.1979853507287821e-04 0.0000000000000000e+00  -2.2077087921152454e-06 1.4891157270185172e-07 0.0000000000000000e+00  1.6732518754494183e+00 -4.5538499933080123e-01 0.0000000000000000e+00  1.5140964966213650e+00 -2.8041519134222614e-01 0.0000000000000000e+00  1.1317415106914224e+00 -2.5834193116659456e-03 0.0000000000000000e+00  1.3345027777256786e+00 -9.4912893831914105e-02 0.0000000000000000e+00  1.4623147620126824e+00 -2.4146204455952205e-01 0.0000000000000000e+00  1.3747573855263127e+00 1.3473136183690038e-01 0.0000000000000000e+00  1.3417139817281427e+00 3.7489006657683294e-01 0.0000000000000000e+00  1.1326122000960723e+00 7.9789243955390182e-05 0.0000000000000000e+00  1.1149239504368373e+00 -1.6058270899269053e-04 0.0000000000000000e+00  -5.8284639152562121e-07 -5.6053896073924938e-09 0.0000000000000000e+00  1.1146911462831954e+00 2.8440301143860423e-03 0.0000000000000000e+00  1.1351247529243136e+00 -3.1795828875289959e-03 0.0000000000000000e+00  1.1327379712280212e+00 6.1613396681658842e-05 0.0000000000000000e+00  1.1324375773417745e+00 -1.5060159316704114e-04 0.0000000000000000e+00  1.1156090364834153e+00 -1.2419318526346967e-04 0.0000000000000000e+00  -3.0415817764682447e-06 1.3504389293218330e-08 0.0000000000000000e+00  1.1325440184660718e+00 -2.9848019421573930e-05 0.0000000000000000e+00  1.1150905893379803e+00 -2.0840491353775204e-04 0.0000000000000000e+00  1.6652188326186173e+00 6.3238674749401050e-02 0.0000000000000000e+00  1.1325886451931020e+00 -6.3963834306545830e-05 0.0000000000000000e+00  1.1324733746704028e+00 -7.8979435396791294e-04 0.0000000000000000e+00  -3.8525429470117839e-06 3.5886907423048371e-08 0.0000000000000000e+00  -1.3330995879639212e-05 -1.4707728152060236e-08 0.0000000000000000e+00  1.1556081486063829e+00 -2.1686093414557193e-03 0.0000000000000000e+00  1.1595482337851635e+00 -7.0041342025343734e-02 0.0000000000000000e+00  1.4691463825522655e+00 -2.1754657252105503e-01 0.0000000000000000e+00  1.1334575926919783e+00 -4.3375376335875001e-04 0.0000000000000000e+00  -3.1342183282096008e-06 -3.3003284060093909e-07 0.0000000000000000e+00  6.5625069018554794e-01 -9.7625976335461598e-08 0.0000000000000000e+00  1.0854451073302394e+00 -9.8219216289112507e-04 0.0000000000000000e+00  1.2303867405475317e+00 -6.0970297559217394e-02 0.0000000000000000e+00  1.2346760745678282e+00 1.0107332016097730e-01 0.0000000000000000e+00  -4.9038380871555662e-06 2.4723006686494144e-09 0.0000000000000000e+00  1.1116939905465468e+00 3.2319627786138265e-04 0.0000000000000000e+00  1.1327660691327797e+00 -1.4702143209249640e-06 0.0000000000000000e+00  -3.5699894488693535e-06 1.8777255560738109e-08 0.0000000000000000e+00  -1.0431877346992903e-05 6.1358114926567610e-09 0.0000000000000000e+00  -4.3813494286793755e-06 -3.8838212094602464e-08 0.0000000000000000e+00  1.6361215565398812e-06 1.2341839837966206e-08 0.0000000000000000e+00  -2.3381966044896501e-06 7.7498922764427551e-09 0.0000000000000000e+00  -3.4967788410098535e-06 -9.2063867401202916e-08 0.0000000000000000e+00  9.9349045346449157e-07 -2.0141600290786719e-08 0.0000000000000000e+00  1.1782050671930886e-05 -1.4252976273394812e-06 0.0000000000000000e+00  8.1820953344864910e-06 -6.5951678894154246e-07 0.0000000000000000e+00  1.6807694953227577e-06 8.9973315547294607e-07 0.0000000000000000e+00  -3.2053008760385551e-06 -3.5819327398114523e-07 0.0000000000000000e+00  9.7298556016330961e-07 1.0847379731586920e-07 0.0000000000000000e+00  -1.9814680861112434e-07 3.5749928795299537e-10 0.0000000000000000e+00  -1.3350572117309651e-05 2.3375053583697343e-06 0.0000000000000000e+00  -9.7895845660382388e-06 -1.1323683120677332e-06 0.0000000000000000e+00  -8.8135236515071134e-07 -1.2783993536652545e-09 0.0000000000000000e+00  -7.5256870055853141e-06 -1.0829734554480489e-08 0.0000000000000000e+00  -2.1220722103371743e-06 -8.8725183406298227e-09 0.0000000000000000e+00  -6.2392519743759998e-07 1.2735683534281403e-08 0.0000000000000000e+00  1.0806880370992475e+00 1.3159115459299592e-04 0.0000000000000000e+00  1.0815669038570090e+00 1.1378693794240868e-04 0.0000000000000000e+00  1.0982528467073354e+00 1.2212815531465216e-04 0.0000000000000000e+00  1.1099072073715912e+00 -2.5212601511293838e-04 0.0000000000000000e+00  1.1328272719906403e+00 6.5268217342567594e-05 0.0000000000000000e+00  1.1324979764022916e+00 -2.4672600486292381e-05 0.0000000000000000e+00  1.0937630753177308e+00 -7.2535943491895093e-03 0.0000000000000000e+00  1.0682121709934813e+00 -6.2064400417775482e-05 0.0000000000000000e+00  -3.9792315676174500e-01 8.1370568340557291e-03 0.0000000000000000e+00  1.5512534257748072e+00 1.7185426308134533e-01 0.0000000000000000e+00  3.1087835474303271e-01 -1.5661640034439267e-01 0.0000000000000000e+00  1.1326566203890422e+00 -3.5574664459632229e-05 0.0000000000000000e+00  1.1327609608855667e+00 -4.3605922316785310e-05 0.0000000000000000e+00  1.1328441388559709e+00 -7.4818591082650762e-05 0.0000000000000000e+00  1.1327507941148292e+00 -4.9715658519091735e-05 0.0000000000000000e+00  1.0794629157008906e+00 -3.9270094235022944e-05 0.0000000000000000e+00  1.0978865526543633e+00 -3.2823474091520208e-04 0.0000000000000000e+00  1.0688232576569161e+00 1.3916882187396516e-04 0.0000000000000000e+00  1.1301693306971079e+00 -4.7050151852990237e-05 0.0000000000000000e+00  1.1343032446986909e+00 1.1451473777039889e-02 0.0000000000000000e+00  1.0289785184223099e+00 -6.2058015667841193e-02 0.0000000000000000e+00  7.5938989533283174e-01 7.0689649544997443e-02 0.0000000000000000e+00  1.1327138042381113e+00 3.3229150727887348e-05 0.0000000000000000e+00  1.1324256822844396e+00 -4.1915873113878581e-05 0.0000000000000000e+00  1.1326900366572701e+00 8.6916351290759007e-06 0.0000000000000000e+00  1.1019378905743671e+00 5.8835295753516175e-05 0.0000000000000000e+00  1.1328134058293668e+00 8.7363640416398592e-05 0.0000000000000000e+00  1.1326017571553715e+00 -6.0676826297319196e-05 0.0000000000000000e+00  1.0900353814134196e+00 -1.4079963389156632e-04 0.0000000000000000e+00  1.1326296396939710e+00 4.8801852467910842e-06 0.0000000000000000e+00  1.0834924763872202e+00 1.5549118513087093e-04 0.0000000000000000e+00  1.2473909114592889e+00 6.8129106562082181e-02 0.0000000000000000e+00  6.5624824025654982e-01 -1.8657627046899022e-07 0.0000000000000000e+00  9.2789489708343520e-01 6.9244103914551339e-02 0.0000000000000000e+00  1.2371940397692895e+00 -3.8908134203736108e-02 0.0000000000000000e+00  1.7894548065720504e+00 4.8811915336329531e-01 0.0000000000000000e+00  1.0459815912300900e+00 1.3808329147219172e-05 0.0000000000000000e+00  1.1371826666425320e+00 -7.6103755261206192e-03 0.0000000000000000e+00  1.1325034539099545e+00 -3.3460660837585538e-04 0.0000000000000000e+00  1.1325033638414195e+00 3.3815714828611480e-06 0.0000000000000000e+00  1.1325786116802001e+00 -1.4838653059661451e-05 0.0000000000000000e+00  1.1326034334931532e+00 -1.0422820169945537e-04 0.0000000000000000e+00  1.1051508044691241e+00 1.7483012914528445e-01 0.0000000000000000e+00  7.9691231911721694e-01 6.0713454839405323e-02 0.0000000000000000e+00  8.0403688777148519e-01 -7.4919456879003005e-02 0.0000000000000000e+00  1.1328070820095322e+00 -3.1565548802762007e-06 0.0000000000000000e+00  1.1324412867919396e+00 -5.5038517539459778e-05 0.0000000000000000e+00  1.3699115520707201e+00 -5.9451215358028400e-02 0.0000000000000000e+00  1.1325333436809135e+00 -7.8474820276723408e-06 0.0000000000000000e+00  8.0997578385940916e-01 -3.9330142680770369e-02 0.0000000000000000e+00  1.0588589663373922e+00 3.1203969576989711e-04 0.0000000000000000e+00  9.5525199227218405e-01 2.7732725026825562e-02 0.0000000000000000e+00  9.4286117128379088e-01 9.6795115497186474e-02 0.0000000000000000e+00  7.5514921613690245e-01 4.5880771320206341e-02 0.0000000000000000e+00  1.3535187391026737e+00 1.0678224680594173e-01 0.0000000000000000e+00  1.1327485097900432e+00 1.3284943199731904e-04 0.0000000000000000e+00  1.1357250365167448e+00 -3.4291841808670805e-04 0.0000000000000000e+00  1.2254857521567433e+00 1.8426604510504047e-01 0.0000000000000000e+00  1.0837228574722668e+00 3.1557150288687876e-05 0.0000000000000000e+00  1.1241713949767380e+00 -1.5242925709365736e-04 0.0000000000000000e+00  1.1325900602713903e+00 -1.0794510926871292e-04 0.0000000000000000e+00  1.1326506834113006e+00 -1.8384034711151325e-04 0.0000000000000000e+00  1.4056722054692439e+00 2.3871659789950803e-02 0.0000000000000000e+00  1.1325339787217754e+00 1.0925849615967569e-04 0.0000000000000000e+00  1.1325921281260325e+00 7.5109671849698673e-06 0.0000000000000000e+00  1.1325359370745951e+00 -4.2508577513971543e-06 0.0000000000000000e+00  1.1321545052935480e+00 -5.2859708624892446e-04 0.0000000000000000e+00  9.8353932121411058e-01 -7.1189621210304374e-05 0.0000000000000000e+00  9.8324457541621746e-01 -3.1458214690467456e-04 0.0000000000000000e+00  1.0304113553750547e+00 -5.4315057910862428e-04 0.0000000000000000e+00  1.0639163445508319e+00 -1.7674834255976190e-04 0.0000000000000000e+00  1.0852079255628182e+00 2.2540369507179818e-04 0.0000000000000000e+00  1.1324789468114349e+00 -6.0962763505572347e-05 0.0000000000000000e+00  1.0162969660808272e+00 -1.4550884667213874e-05 0.0000000000000000e+00  1.1328222721075196e+00 3.1293764058418267e-05 0.0000000000000000e+00  1.1326010927328396e+00 4.6855069915866634e-06 0.0000000000000000e+00  1.3376000480835799e+00 -9.3361993394538545e-02 0.0000000000000000e+00  1.1327335589808114e+00 -3.5999376209530731e-05 0.0000000000000000e+00  1.1326534030852320e+00 -5.8434179106991469e-05 0.0000000000000000e+00  1.1298727487100044e+00 -1.6077653135801319e-02 0.0000000000000000e+00  9.3521941360074878e-01 -9.1390581662780540e-05 0.0000000000000000e+00  1.1302021537728897e+00 -1.0481941213062470e-04 0.0000000000000000e+00  1.4749183572890296e+00 -4.1349775804292421e-01 0.0000000000000000e+00  1.0500147809825329e+00 2.0412695464361644e-04 0.0000000000000000e+00  7.3676312635060415e-01 -7.6022105335094306e-02 0.0000000000000000e+00  1.4360549145196360e+00 -6.5153900542374910e-02 0.0000000000000000e+00  1.0438743721096742e+00 7.7876064041875132e-04 0.0000000000000000e+00  9.7654915344532922e-01 -1.1048313003882736e-05 0.0000000000000000e+00  1.5437238683956316e+00 4.7753653317944361e-01 0.0000000000000000e+00  1.0122082284133955e+00 1.8147839866093513e-01 0.0000000000000000e+00  1.0289453255706082e+00 2.4600412386376844e-04 0.0000000000000000e+00  1.9270367854334254e+00 2.4208916432595048e-01 0.0000000000000000e+00  1.4490431630946037e+00 -5.0535189686821680e-01 0.0000000000000000e+00  9.7049411012074860e-01 -1.8911223319837422e-01 0.0000000000000000e+00  1.0242737988808812e+00 -1.7174766054412170e-03 0.0000000000000000e+00  9.2322088903262134e-01 -9.9271156371232641e-02 0.0000000000000000e+00  1.0117814900489881e+00 4.7651345898142020e-05 0.0000000000000000e+00  1.0448861819554898e+00 6.9315638242808481e-05 0.0000000000000000e+00  1.1323536113509511e+00 -4.5915703013060347e-05 0.0000000000000000e+00  4.9110519571506367e-01 3.6830057789342306e-02 0.0000000000000000e+00  1.4062434770516075e+00 -5.9381187775621865e-07 0.0000000000000000e+00  1.1327603298292113e+00 3.9297619580830827e-05 0.0000000000000000e+00  1.0300680759403336e+00 -6.7293591466432816e-04 0.0000000000000000e+00  1.4062430824240557e+00 -3.8318950700393568e-07 0.0000000000000000e+00  1.0297467232961237e+00 -3.4423596237701961e-06 0.0000000000000000e+00  1.1321994407533373e+00 -1.3766159004536269e-03 0.0000000000000000e+00  1.1454388299241258e+00 5.5867047490512668e-02 0.0000000000000000e+00  1.1326301695609744e+00 -1.3254378868778722e-05 0.0000000000000000e+00  7.1803467534717202e-01 1.0094795821008427e-01 0.0000000000000000e+00  1.1326340192714528e+00 -2.1674065860056113e-05 0.0000000000000000e+00  1.0129325797121915e+00 -1.7409545541031689e-04 0.0000000000000000e+00  9.9481455529817830e-01 4.8933721150136575e-03 0.0000000000000000e+00  8.8584402813636320e-01 1.2866657256605605e-04 0.0000000000000000e+00  1.1322155263361244e+00 5.0804162830128887e-05 0.0000000000000000e+00  8.8655486048982890e-01 5.3748733818821728e-05 0.0000000000000000e+00  9.81536705