<?xml version="1.0"?>
<VTKFile type="UnstructuredGrid"  version="0.1"  >
<UnstructuredGrid>
<Piece  NumberOfPoints="2446" NumberOfCells="4585">
<Points>
<DataArray  type="Float64"  NumberOfComponents="3"  format="ascii">0 0.41 0  0 0 0  2.2 0 0  2.2 0.41 0  0.2404508497187474 0.2293892626146237 0  0.25 0.2 0  0.2404508497187474 0.1706107373853764 0  0.2154508497187474 0.1524471741852423 0  0.1845491502812526 0.1524471741852423 0  0.1595491502812526 0.1706107373853764 0  0.15 0.2 0  0.1595491502812526 0.2293892626146237 0  0.1845491502812527 0.2475528258147577 0  0.2154508497187474 0.2475528258147577 0  1.1 0 0  1.1 0.41 0  0 0.205 0  0.55 0 0  0.55 0.41 0  0.275 0 0  0.275 0.41 0  1.65 0.41 0  1.65 0 0  0.8250000000000001 0.41 0  0.8250000000000001 0 0  1.375 0 0  1.375 0.41 0  1.925 0 0  1.925 0.41 0  1.5125 0.205 0  1.7875 0.205 0  0.6875 0.205 0  0.9625000000000001 0.205 0  1.2375 0.205 0  2.2 0.205 0  0.4687002074688797 0.2068568464730291 0  1.99375 0.2152743902439024 0  2.0625 0 0  2.0625 0.41 0  2.2 0.3075 0  0.4125 0 0  0.4125 0.41 0  1.7875 0.41 0  1.375 0.1486128048780488 0  1.5125 0 0  1.7875 0 0  1.5125 0.41 0  0.8250000000000001 0.2613871951219511 0  0.9625000000000001 0.41 0  0.9625000000000001 0 0  0.6875 0.41 0  0.6875 0 0  0.1375 0 0  0.1375 0.41 0  1.2375 0 0  1.1 0.1486128048780487 0  1.2375 0.41 0  1.65 0.1486128048780487 0  1.126715909090909 0.2793064024390244 0  1.676715909090909 0.2793064024390244 0  0.8517159090909092 0.1306935975609756 0  1.348284090909091 0.2793064024390244 0  0.34375 0.3032389320646208 0  1.894702181800738 0.1282910975492754 0  2.092797818199262 0.1282910975492754 0  1.85625 0.3075 0  0.61875 0.3075 0  0.61875 0.1025 0  0.3648540804333487 0.1240075933101478 0  0 0.3075 0  0 0.1025 0  2.099172119769978 0.25625 0  0.48125 0.09238439620688085 0  0.5781001037344399 0.2059284232365146 0  0.48125 0.3196743479159776 0  0.7265881057911006 0.3055240343720796 0  1.99375 0.08395950269330846 0  1.459960956013612 0.3075 0  1.569025960719943 0.2986889805672169 0  0.75625 0.08213100772579164 0  1.03125 0.3278689922742084 0  0.923871252904788 0.3078247185783941 0  1.959375 0.3126371951219512 0  1.749222215368287 0.1025 0  1.275777784631713 0.1025 0  2.2 0.1025 0  1.225938124459196 0.3075 0  1.550777784631713 0.1025 0  1.000777784631713 0.1025 0  1.44375 0.07430640243902442 0  1.16875 0.07430640243902437 0  1.899250267340833 0.2229966846119207 0  0.1020898364287272 0.3140258291809757 0  1.766482954545455 0.2934032012195123 0  0.3405058858996321 0.2119987970531874 0  0.7710785630958338 0.1710968191298857 0  1.046078563095834 0.2389031808701144 0  0.2 0.3400647632937836 0  1.421109702350723 0.2261157654379721 0  0.2800464974185557 0.08982544815605742 0  0.098916018031319 0.09171660955420841 0  2.13125 0 0  2.118919042110979 0.3422084711244843 0  1.30625 0.41 0  0.89375 0 0  1.597888256393107 0.2173787389261347 0  0.20625 0 0  1.829299675393195 0.07400700849299596 0  1.71875 0.41 0  1.16875 0.41 0  2.038220665644273 0.332420740103091 0  0.34375 0 0  0.417496017710808 0.2696595573092803 0  0.2 0.07687845740457822 0  0.9295982307099278 0.1343158415898188 0  0.07390688010811153 0.1697064032433452 0  0.5238366813727013 0.2578302467013575 0  0.05452951551825875 0.25625 0  0.5229630068078351 0.1548816096928243 0  1.452769549894695 0.1548122580621249 0  1.369219062229598 0.07430640243902442 0  1.30625 0 0  0.8504409521244898 0.3356935975609756 0  0.8821881244591965 0.205 0  1.720943423819132 0.1714577452753128 0  1.157188124459196 0.205 0  1.094219062229598 0.07430640243902437 0  1.03125 0 0  1.304056576180868 0.1714577452753128 0  1.67579304192913 0.07430640243902437 0  0.2751941921308361 0.3346083473122598 0  1.209670467133757 0.1362100266964769 0  1.025335513626278 0.1700681449722324 0  0.7562500000000001 0.41 0  1.58125 0 0  0.7567170593862014 0.2409196493502535 0  0.6926714215682891 0.1272249611432207 0  0.4139715849905988 0.3397932387114203 0  0.9840787304190477 0.2717749043358119 0  0.06875000000000001 0.41 0  0 0.35875 0  0.9281250000000001 0.06276726142697993 0  0.5507396469029935 0.3219409231578227 0  0.5504468037989405 0.09136885600634273 0  1.58125 0.41 0  1.631724228912893 0.3381867502687533 0  1.825608881788174 0.14499488549201 0  1.85625 0 0  1.44375 0 0  1.44375 0.41 0  1.85625 0.41 0  2.13125 0.41 0  0.7562500000000001 0 0  0.89375 0.41 0  0.4812500000000001 0 0  0.34375 0.41 0  0.4812500000000001 0.41 0  0.20625 0.41 0  0.06875000000000001 0 0  1.16875 0 0  0.61875 0 0  0.61875 0.41 0  1.03125 0.41 0  1.71875 0 0  1.99375 0 0  1.99375 0.41 0  1.340625 0.3489494290853124 0  1.134375 0.3489494290853123 0  1.700180620188976 0.3438659752031281 0  2.135782184673599 0.07126652247502523 0  1.668441847249787 0.2129203728327609 0  1.295782514339747 0.2378437748815763 0  0.8233075729931248 0.06842334294821524 0  1.409375 0.3520314716057996 0  0.403505597322782 0.182067236678212 0  0.378125 0.05794951541303489 0  0.3043468223249023 0.1518321115979534 0  2.129248544730567 0.1906135162504124 0  2.060771381434487 0.1989445750470348 0  2.013252586573865 0.1496169464686054 0  1.942766402200229 0.1734448904596831 0  1.895522487186454 0.06076163953489683 0  2.069553871656643 0.06605731020975725 0  1.274680914880868 0.3520219391081363 0  1.614713220494657 0.09473434380863296 0  0.7899021319497519 0.3149123934144827 0  0.69518737419149 0.0634051089053758 0  0.2971740475496061 0.2592172353407536 0  1.72990325744076 0.2380068107952482 0  1.356580098625191 0.2120393231351682 0  2.034370752044885 0.2668681600792073 0  1.51768709249349 0.3426260931494756 0  1.561883724969884 0.1650446847858835 0  1.197344062229598 0.2523725417393646 0  1.804085235518364 0.3468178408964637 0  1.817887819205233 0.2589243285818559 0  1.905897727272727 0.3485060975609756 0  0.6719798073392919 0.2688965171178177 0  0 0.05125 0  0.653125 0.35875 0  0.6396896119294488 0.1627615407790282 0  0.4274150154087412 0.1242548552168279 0  1.192836486056382 0.3562350748565544 0  0.8279124365364005 0.183856489168822 0  1.097485222388854 0.2083571153401724 0  1.28257088594801 0.2944411014911587 0  1.474860187679412 0.2504218616229368 0  1.406767003493824 0.2829282258560709 0  0.446875 0.04619219810344041 0  0.515625 0.04585361801037557 0  0.592043440706648 0.05125 0  1.845656689180403 0.1998310418452388 0  2.144958525570388 0.2909790873294231 0  0.6171090763650112 0.2492366900333857 0  2.2 0.15375 0  0.5145586920831158 0.3648371739579888 0  1.57794966442982 0.3540357145964566 0  0.721875 0.3633107922168974 0  0.0496154796471391 0.333125 0  0.5843750000000001 0.3662560860076676 0  0.5810878747760798 0.1474002776121195 0  1.508991196088596 0.1421783375065625 0  0.8840670607017558 0.2640994375393898 0  0.09776612425612034 0.2204896805326566 0  1.50436820029908 0.06143401634903343 0  1.223857000523521 0.0823554862453532 0  1.153316824384777 0.1289850171317837 0  2.148922302309752 0.1258841779285271 0  0.309375 0.04312325590431198 0  1.621993280276081 0.2841214267927899 0  1.550118654119087 0.2461998729100966 0  1.327182649291491 0.1216967252533594 0  1.051977450479407 0.1221382572915816 0  1.753125 0.04556020050186112 0  1.271875 0.04556020050186116 0  0.9816084133102366 0.05126138213476004 0  1.039051841454368 0.0572224914831029 0  0.9719230514536006 0.3480477870845102 0  1.94956388244759 0.1180512551534177 0  1.949997712993411 0.04965831614304109 0  1.771961817615021 0.1530278789497521 0  1.909246823951428 0.2812757146784527 0  0.2459536687882397 0.04668633953831142 0  1.948575539857022 0.2445328248721197 0  1.697271520964565 0.1233917627620729 0  0.7964897648514618 0.1211426571931604 0  1.065625 0.3689344961371042 0  1.085849084308977 0.3170853572226867 0  0.4702981435440001 0.260434880697798 0  1.577403511714593 0.05463601888079143 0  0.05622663515370135 0.05493816910862376 0  0.3267207591099919 0.3566194660323104 0  0.9003051618565143 0.3564049499960621 0  1.751571320346033 0.3651102912045228 0  0.1583785085108421 0.2994699345738728 0  0.1455283439499995 0.3542795598723423 0  2.2 0.35875 0  0.2347662494194072 0.298325008655211 0  0.1527284455616188 0.1065771775690181 0  0.1382139529076665 0.05427454456341477 0  0.8749341636311069 0.05110114999892954 0  0.643661668713109 0.05693499781019222 0  1.466879772203159 0.3611261772912453 0  1.990280163552011 0.3564754268533217 0  1.17471064520912 0.2990917256188288 0  0.5202693090594349 0.206382495511728 0  0 0.25625 0  2.2 0.25625 0  2.2 0.05125 0  0 0.15375 0  1.853978576207987 0.35875 0  0.9787513713939683 0.1487523696999336 0  0.240625 0.3722153812029779 0  1.515638456102889 0.2882700110184686 0  0.09048297387599738 0.3637717362208066 0  2.150453692751374 0.2387066338105111 0  1.323782677156475 0.04897634338873398 0  0.8074131292871642 0.3624701995505916 0  1.409375 0.03715320121951221 0  1.406484531114799 0.1087852750766809 0  1.134375 0.03715320121951218 0  1.627401732573545 0.04552157221025036 0  0.1170173172005315 0.1427610859166811 0  2.045405893604797 0.1105340662939892 0  1.255408269734577 0.1577307500159216 0  2.028125 0.03707597992059326 0  0.4743610090857199 0.1421513964721819 0  0.9354010469015898 0.250631300585664 0  0.04420832937638274 0.128125 0  0.8922386349349938 0.0992956419364831 0  0.1197849154434487 0.2663398672460083 0  1.248258025468107 0.2565907092181813 0  0.3746885856929528 0.370723531618974 0  1.203125 0.0366132337404304 0  0.5724622277005015 0.2751253816079333 0  0.3365425205162783 0.08395777655057959 0  2.072662025974815 0.2975086504196739 0  0.4581080832182547 0.3648371739579888 0  0.3874522734668214 0.2295447548840689 0  0.7827853612484443 0.04106550386289586 0  1.887722846421017 0.1760882698830035 0  1.472640588990488 0.1118278026240017 0  1.865937103925594 0.2604137786483804 0  1.463913572748262 0.2030442564990043 0  1.376426316059077 0.3186741374914345 0  0.6641993820150034 0.3141688596240831 0  0.2943117490824315 0.2130987422685822 0  0.3478153998082709 0.1666571081082676 0  0.3427990510599805 0.2575950027870776 0  0.7997118993855807 0.2216171933356366 0  
[...]
<PointData  Vectors="f_31"> 
<DataArray  type="Float64"  Name="f_31"  NumberOfComponents="3" format="ascii">-8.7024479269232535e-08 -1.4430074253452724e-06 0.0000000000000000e+00  -4.7200980965890290e-06 1.9237830896789851e-06 0.0000000000000000e+00  4.5344142879377815e-06 -3.4883683238655449e-09 0.0000000000000000e+00  -1.8792394005147931e-05 2.9143486841293448e-07 0.0000000000000000e+00  6.4655204865841356e-05 -3.5316992354095394e-05 0.0000000000000000e+00  4.2654795106271461e-05 -2.2274132626820425e-05 0.0000000000000000e+00  4.8600635719341036e-05 -9.5398562324566435e-06 0.0000000000000000e+00  7.7716630759018746e-05 -4.0571336495185565e-05 0.0000000000000000e+00  -1.3628736932737949e-05 -1.8133588594208713e-05 0.0000000000000000e+00  -4.0322189850077782e-06 3.9527939731810301e-06 0.0000000000000000e+00  4.0169518664332696e-06 7.2144478217897613e-06 0.0000000000000000e+00  6.6252747218991365e-06 -6.4445139545589192e-06 0.0000000000000000e+00  1.7464446557637609e-05 1.2507465703122893e-05 0.0000000000000000e+00  3.9543900242318622e-05 1.5779666773395668e-05 0.0000000000000000e+00  -3.8267869950840543e-06 2.5948511163966219e-08 0.0000000000000000e+00  -8.1996268058341588e-07 -4.1746342796548909e-08 0.0000000000000000e+00  1.5000037722628956e+00 1.0570005105684215e-06 0.0000000000000000e+00  -8.0132516790391132e-06 -1.0955077668943138e-07 0.0000000000000000e+00  2.4230921303527941e-06 1.1376437489294219e-07 0.0000000000000000e+00  6.5251611046126515e-06 3.3201054035885143e-06 0.0000000000000000e+00  -4.4787152018352486e-06 -9.8868394016693149e-07 0.0000000000000000e+00  -1.7894373254282403e-06 -4.8616511783477541e-07 0.0000000000000000e+00  -2.0946644232153639e-06 2.2552682824299723e-07 0.0000000000000000e+00  1.2419331172280209e-06 7.6526820709985190e-08 0.0000000000000000e+00  -6.4731660358090340e-06 4.0134694317672319e-08 0.0000000000000000e+00  -4.2410366339342239e-06 -6.1611862653970936e-08 0.0000000000000000e+00  -8.2039477943325357e-07 -9.5703553099262098e-08 0.0000000000000000e+00  -4.4609901485652111e-06 4.0628918430644037e-08 0.0000000000000000e+00  -3.5084117179246095e-06 1.2501975666746864e-07 0.0000000000000000e+00  1.0712048864905130e+00 1.9890261855285615e-05 0.0000000000000000e+00  1.0711395106383974e+00 1.2144528802264917e-05 0.0000000000000000e+00  1.0702444042953352e+00 -1.1787851565431969e-03 0.0000000000000000e+00  1.0710858425500793e+00 -1.0703878535156091e-04 0.0000000000000000e+00  1.0709945172861604e+00 9.4138961600826139e-06 0.0000000000000000e+00  1.0718395698176313e+00 9.8010654319436718e-05 0.0000000000000000e+00  1.0297393835908497e+00 -1.0240892727250398e-02 0.0000000000000000e+00  1.0710808337628970e+00 1.7884385706955372e-05 0.0000000000000000e+00  3.6393316939795171e-07 -9.9750597511690021e-08 0.0000000000000000e+00  -1.1380229137277067e-06 2.1038376500488837e-07 0.0000000000000000e+00  1.0711505524900533e+00 -9.3699408900963757e-04 0.0000000000000000e+00  -9.6057739193207192e-06 5.7486306604602762e-08 0.0000000000000000e+00  -2.9922532136063745e-06 8.4321494943273489e-07 0.0000000000000000e+00  -8.1058587038756970e-06 -6.0297211691963183e-08 0.0000000000000000e+00  1.0711560062423058e+00 2.8098242228382468e-05 0.0000000000000000e+00  -2.8561929942435530e-06 2.2213565538313062e-07 0.0000000000000000e+00  -6.0004376000882221e-06 2.9459206226104677e-07 0.0000000000000000e+00  3.9724398853096100e-07 -5.5700217103050878e-08 0.0000000000000000e+00  1.0712176277341554e+00 -3.7992383067312317e-04 0.0000000000000000e+00  -2.7916956291091953e-06 6.6573397356196129e-08 0.0000000000000000e+00  1.7441848049538401e-06 -2.1340228277187326e-07 0.0000000000000000e+00  3.6947028574510146e-06 2.3156051997138259e-07 0.0000000000000000e+00  -8.2269219729812830e-06 -7.9279874204555954e-08 0.0000000000000000e+00  2.4991435090423899e-05 -3.2233972785864517e-06 0.0000000000000000e+00  2.1485922637789396e-05 -1.6253239096862226e-06 0.0000000000000000e+00  -4.6432886979593267e-07 1.4035498961462294e-07 0.0000000000000000e+00  1.0709502138323097e+00 -4.3178176696336252e-05 0.0000000000000000e+00  -1.5496560987392840e-06 -2.2699337441162349e-08 0.0000000000000000e+00  1.0711403667214674e+00 -5.0167983738058552e-05 0.0000000000000000e+00  1.0710440838047837e+00 -1.4633241662449179e-05 0.0000000000000000e+00  1.0710452941051676e+00 -8.9539698841860965e-05 0.0000000000000000e+00  1.0709741682350185e+00 -1.2559005551878740e-04 0.0000000000000000e+00  1.0712122353313587e+00 1.1987354201958351e-04 0.0000000000000000e+00  1.2456395552855031e+00 -2.3192101005743848e-01 0.0000000000000000e+00  1.0710558891758839e+00 -4.4952218169411213e-05 0.0000000000000000e+00  1.0712102553036071e+00 1.9669607070411365e-04 0.0000000000000000e+00  1.0710361298122244e+00 -3.7722599686195235e-05 0.0000000000000000e+00  1.0733908217563710e+00 -3.8070898050582935e-03 0.0000000000000000e+00  1.0699103087164457e+00 1.0623916054287971e-03 0.0000000000000000e+00  1.0960730554101148e+00 2.4141273241404063e-01 0.0000000000000000e+00  1.1249976021638715e+00 2.8640620216694919e-06 0.0000000000000000e+00  1.1249887582885942e+00 -1.4473232279938519e-06 0.0000000000000000e+00  1.0711277130301842e+00 1.9273585792563515e-05 0.0000000000000000e+00  1.0797059702223528e+00 2.4663717674793636e-02 0.0000000000000000e+00  1.0654545141107923e+00 -3.1267632618317432e-03 0.0000000000000000e+00  1.0920786697802372e+00 -2.9793354102641868e-02 0.0000000000000000e+00  1.0716766983200916e+00 -9.3437435358532754e-04 0.0000000000000000e+00  1.0710359604785462e+00 2.0953375799009276e-04 0.0000000000000000e+00  1.0708377222727139e+00 7.0847394739671974e-05 0.0000000000000000e+00  1.0708880923893476e+00 -1.7186299000398393e-06 0.0000000000000000e+00  1.0705490169596865e+00 -3.6136677296031778e-04 0.0000000000000000e+00  1.0701763865685519e+00 4.7414142195558996e-04 0.0000000000000000e+00  1.0711717032863473e+00 -1.2743609475470498e-04 0.0000000000000000e+00  1.0708921748024220e+00 4.9809025008922318e-05 0.0000000000000000e+00  1.0709802984407324e+00 -6.1859717119522759e-05 0.0000000000000000e+00  1.0711875603861021e+00 1.7003648504569977e-04 0.0000000000000000e+00  1.0712568584544691e+00 9.6620253240037323e-04 0.0000000000000000e+00  1.0711108349819101e+00 -2.6582005323522504e-04 0.0000000000000000e+00  1.0710659844985355e+00 -5.3072409111753720e-05 0.0000000000000000e+00  1.0710644683335688e+00 -6.7797636528447994e-05 0.0000000000000000e+00  1.0706191830842222e+00 -2.3355639024396697e-04 0.0000000000000000e+00  1.0709868226446502e+00 -6.6231395704362896e-05 0.0000000000000000e+00  1.0710381520384931e+00 1.4861870441871038e-05 0.0000000000000000e+00  1.2012937343162104e+00 2.3135872529615226e-01 0.0000000000000000e+00  1.0711113535680703e+00 7.3624826194535243e-05 0.0000000000000000e+00  4.2751403245441250e-01 -2.2886778292993126e-01 0.0000000000000000e+00  1.0707691409754685e+00 -4.5495072343297777e-04 0.0000000000000000e+00  1.0710909918370319e+00 -3.3633328081807674e-05 0.0000000000000000e+00  1.2244488312205499e+00 3.8311748435050319e-01 0.0000000000000000e+00  1.0710833288438739e+00 4.2827964472855057e-05 0.0000000000000000e+00  1.4993462129232584e+00 1.4525725473195109e-01 0.0000000000000000e+00  1.1647620337480606e+00 -2.2870746353222876e-01 0.0000000000000000e+00  -3.1895828112414285e-07 -2.8311888744427075e-08 0.0000000000000000e+00  1.0691966072122390e+00 2.7094787855068902e-04 0.0000000000000000e+00  -2.8480735448695594e-06 -6.5340073325232675e-08 0.0000000000000000e+00  -7.7250777414653629e-06 -2.0253472810475934e-07 0.0000000000000000e+00  1.0711837715223622e+00 -5.3919659191991530e-05 0.0000000000000000e+00  -2.8186308625262585e-05 3.4904039549671933e-06 0.0000000000000000e+00  1.0707161861689338e+00 -2.9534226739167101e-04 0.0000000000000000e+00  -5.2968958827448115e-06 1.2217851104568258e-07 0.0000000000000000e+00  -3.7431125977030963e-06 -2.0974095708700953e-07 0.0000000000000000e+00  1.0712405084751455e+00 7.2314354101397712e-05 0.0000000000000000e+00  1.7588591862196943e-06 5.4674519382164200e-07 0.0000000000000000e+00  1.0513987602322883e+00 -1.0617714995212772e-01 0.0000000000000000e+00  1.3625243926205530e+00 -4.0254175629332589e-01 0.0000000000000000e+00  1.0710365555957344e+00 -1.5670665803592732e-04 0.0000000000000000e+00  1.3407417774401580e+00 -1.0948420138592604e-01 0.0000000000000000e+00  1.0648692248686491e+00 -1.6501566920367621e-02 0.0000000000000000e+00  1.3741313290800037e+00 1.1874026047348757e-01 0.0000000000000000e+00  1.0596000678342459e+00 7.7369566820642164e-03 0.0000000000000000e+00  1.0709930240740559e+00 2.3448657928550806e-05 0.0000000000000000e+00  1.0702164619778982e+00 -4.3814863048780240e-04 0.0000000000000000e+00  -4.1842198524802958e-07 1.9216591921448256e-07 0.0000000000000000e+00  1.0710855069695204e+00 4.3422348569805898e-05 0.0000000000000000e+00  1.0711228395816943e+00 -1.7100050536227320e-04 0.0000000000000000e+00  1.0710736763937934e+00 3.4491819316675274e-05 0.0000000000000000e+00  1.0709230664027414e+00 -5.8353912572118861e-06 0.0000000000000000e+00  1.0706887682944817e+00 -2.7443418021605778e-04 0.0000000000000000e+00  -4.1736045105530301e-06 -2.0961605439601588e-07 0.0000000000000000e+00  1.0711278470501513e+00 6.2228518240627957e-05 0.0000000000000000e+00  1.0703724390814124e+00 1.5119435513516981e-04 0.0000000000000000e+00  1.4358287421716349e+00 -3.9791758936911274e-02 0.0000000000000000e+00  1.0710420020148697e+00 5.1531644861920642e-05 0.0000000000000000e+00  1.0710180297572667e+00 -7.9213832089971770e-05 0.0000000000000000e+00  -5.1967332911871251e-07 1.9810400463064546e-08 0.0000000000000000e+00  -1.6894335735721919e-05 2.4009547893148350e-07 0.0000000000000000e+00  1.0711452651279052e+00 -7.8859601180776974e-04 0.0000000000000000e+00  1.0704557799040011e+00 -2.1572057964663389e-04 0.0000000000000000e+00  1.1533450234125784e+00 -6.1539951182915012e-02 0.0000000000000000e+00  1.0711872544188368e+00 -4.1352779643833529e-05 0.0000000000000000e+00  1.2232686473793111e-05 1.2048915588952849e-05 0.0000000000000000e+00  6.5624889463306613e-01 1.7899965885124663e-06 0.0000000000000000e+00  1.0695978902739576e+00 -4.6026856707957878e-04 0.0000000000000000e+00  1.0786885944163660e+00 -9.9348563771074084e-03 0.0000000000000000e+00  1.0722840361425956e+00 6.0322703525289801e-03 0.0000000000000000e+00  -6.2872253073746072e-06 4.9737907257519360e-07 0.0000000000000000e+00  1.0692297202944903e+00 8.6131497222098651e-04 0.0000000000000000e+00  1.0710576400100837e+00 -2.8853532110273520e-05 0.0000000000000000e+00  -5.6220047613440287e-06 3.7506082366315453e-07 0.0000000000000000e+00  -1.3201940950498898e-05 2.5783280645140264e-07 0.0000000000000000e+00  -6.9014833873442248e-06 3.1246016478229633e-07 0.0000000000000000e+00  8.8424407443447829e-07 7.4638175404259877e-08 0.0000000000000000e+00  -4.1002159340818112e-06 1.3084611459328585e-07 0.0000000000000000e+00  -9.0500731070947253e-07 5.5292595471591520e-08 0.0000000000000000e+00  -1.7033752535816334e-06 -1.9641854922104041e-07 0.0000000000000000e+00  -8.1963621066817222e-07 -2.4251476286770217e-07 0.0000000000000000e+00  6.2042680019466952e-06 -1.8871609418015060e-06 0.0000000000000000e+00  -1.2697261330127260e-05 4.1462830012414218e-07 0.0000000000000000e+00  -2.9037701335400650e-05 -3.3151935921600448e-06 0.0000000000000000e+00  2.4357745707602788e-05 -1.5440783749994030e-05 0.0000000000000000e+00  -6.9480182983835284e-07 1.1930913824628735e-07 0.0000000000000000e+00  -7.4221269032161488e-06 -2.0497446896432805e-07 0.0000000000000000e+00  -4.6845408476927741e-06 1.7775576042848223e-07 0.0000000000000000e+00  -1.4130343196198413e-06 -8.7441458429123239e-08 0.0000000000000000e+00  -8.3746366744262787e-06 -2.2911303616873846e-07 0.0000000000000000e+00  -2.5865182855136148e-06 -6.0066167223944699e-08 0.0000000000000000e+00  -1.5548448102828527e-06 -8.9303418577178491e-08 0.0000000000000000e+00  1.0667866362429772e+00 1.2696924857874001e-03 0.0000000000000000e+00  1.0701230435091382e+00 3.8429311538411970e-04 0.0000000000000000e+00  1.0703164767785378e+00 -3.0327962264115364e-04 0.0000000000000000e+00  1.0699065526631095e+00 9.9981726191823286e-05 0.0000000000000000e+00  1.0711087987761529e+00 -3.6630872439203446e-07 0.0000000000000000e+00  1.0711125428061876e+00 3.8183681524760243e-06 0.0000000000000000e+00  1.0693783764803522e+00 -4.4629362248344034e-04 0.0000000000000000e+00  1.0678595947857701e+00 1.3968844842484707e-03 0.0000000000000000e+00  9.3292659661402655e-01 4.2158614971873003e-02 0.0000000000000000e+00  1.2032165720947878e+00 7.3755405232819080e-02 0.0000000000000000e+00  1.0058598534066194e+00 5.4809901422307739e-01 0.0000000000000000e+00  1.0713123019234916e+00 1.7580312351303385e-04 0.0000000000000000e+00  1.0712443114544881e+00 9.3774954877464967e-05 0.0000000000000000e+00  1.0711404470575245e+00 1.0263082323795620e-04 0.0000000000000000e+00  1.0710361809220537e+00 1.5573991047695381e-05 0.0000000000000000e+00  1.0683719801151692e+00 -2.0636034119590266e-04 0.0000000000000000e+00  1.0698693305245062e+00 -4.4179051510035669e-04 0.0000000000000000e+00  1.0697265017693314e+00 1.3541591380079304e-04 0.0000000000000000e+00  1.0707722641186295e+00 -2.2037606716674942e-04 0.0000000000000000e+00  1.0714352799087754e+00 -3.7841008441345526e-04 0.0000000000000000e+00  1.0692916592991686e+00 -4.9012413638399253e-05 0.0000000000000000e+00  1.3104089577489852e+00 -4.9941807588491721e-01 0.0000000000000000e+00  1.0711291468041517e+00 -2.0904723298048783e-06 0.0000000000000000e+00  1.0710748843098159e+00 3.4300898273883032e-05 0.0000000000000000e+00  1.0712083970767488e+00 1.4591516892341818e-05 0.0000000000000000e+00  1.0695204117784183e+00 -1.3112665281821443e-04 0.0000000000000000e+00  1.0711241204198949e+00 -4.5522304989746493e-05 0.0000000000000000e+00  1.0710270800068646e+00 -4.2009060883325593e-05 0.0000000000000000e+00  1.0692033598646051e+00 2.0391618308186754e-04 0.0000000000000000e+00  1.0711087684304592e+00 1.7799641426694111e-05 0.0000000000000000e+00  1.0700959020719139e+00 6.7702386613900970e-04 0.0000000000000000e+00  1.0713551995058896e+00 -2.0446577720540501e-03 0.0000000000000000e+00  6.5624657281022059e-01 -8.9376478045889149e-07 0.0000000000000000e+00  1.0683980775361173e+00 1.8173616339367909e-04 0.0000000000000000e+00  1.0692052408326451e+00 -3.6909316100618410e-04 0.0000000000000000e+00  1.0593395006610231e+00 7.6985709355632842e-02 0.0000000000000000e+00  1.0664856108915601e+00 5.2944643575408379e-04 0.0000000000000000e+00  1.0708666936891917e+00 -2.7228423601785210e-04 0.0000000000000000e+00  1.0709445827113369e+00 -4.3407777545452455e-05 0.0000000000000000e+00  1.0713623056984563e+00 -6.4843012954390154e-05 0.0000000000000000e+00  1.0709888622107584e+00 3.0240027024743227e-05 0.0000000000000000e+00  1.0710252343482045e+00 1.1100808717485179e-04 0.0000000000000000e+00  1.1014874994339179e+00 1.7361359088432445e-02 0.0000000000000000e+00  1.0700184185782904e+00 2.4790089312196500e-03 0.0000000000000000e+00  1.0651825255683103e+00 -2.3205670987057838e-04 0.0000000000000000e+00  1.0711001894299113e+00 -1.5033496494698256e-05 0.0000000000000000e+00  1.0710307131531065e+00 -2.3394362415102702e-04 0.0000000000000000e+00  1.0699242815083807e+00 -3.9533060834178691e-03 0.0000000000000000e+00  1.0715995962994953e+00 6.0280548051026535e-04 0.0000000000000000e+00  1.0802083272107421e+00 -6.0364289525308683e-03 0.0000000000000000e+00  1.0696017593648393e+00 -2.5586087210345050e-04 0.0000000000000000e+00  1.0596230371322555e+00 6.0049824740257302e-04 0.0000000000000000e+00  9.4442220677132338e-01 7.9443580341995126e-02 0.0000000000000000e+00  1.0649136767263239e+00 -1.4601969513408609e-03 0.0000000000000000e+00  1.0671638077767407e+00 1.9351016219356051e-03 0.0000000000000000e+00  1.0710535330266129e+00 3.8930978396348397e-05 0.0000000000000000e+00  1.0711157183282061e+00 -1.8704512416247140e-04 0.0000000000000000e+00  1.2269527614033131e+00 1.5402790859535320e-01 0.0000000000000000e+00  1.0705448247835951e+00 6.4258249578668557e-05 0.0000000000000000e+00  1.0708187977175831e+00 8.5309774749765135e-05 0.0000000000000000e+00  1.0710855180823922e+00 2.6814550111072002e-05 0.0000000000000000e+00  1.0712613415854244e+00 3.9693069328708544e-04 0.0000000000000000e+00  1.3340582121993965e+00 8.4051008858280318e-02 0.0000000000000000e+00  1.0709348856865586e+00 -2.3353482854179947e-05 0.0000000000000000e+00  1.0709951065767072e+00 -1.9310498271958717e-05 0.0000000000000000e+00  1.0712640575747103e+00 8.9169520393657988e-05 0.0000000000000000e+00  1.0709852549678855e+00 -8.6747080336625645e-05 0.0000000000000000e+00  1.0601611296322249e+00 -7.2591459787649346e-04 0.0000000000000000e+00  1.0592475819624034e+00 3.0072990529855179e-04 0.0000000000000000e+00  1.0680863184266978e+00 4.2175912786692274e-04 0.0000000000000000e+00  1.0697778482325730e+00 -6.2622928065515643e-05 0.0000000000000000e+00  1.0702306225161988e+00 -8.6855892735725440e-05 0.0000000000000000e+00  1.0710583937890041e+00 2.3490025059273470e-05 0.0000000000000000e+00  1.0594590831103383e+00 -7.3128608635062494e-04 0.0000000000000000e+00  1.0711702237599356e+00 6.2804175082009656e-07 0.0000000000000000e+00  1.0711935204128025e+00 2.5744611535640760e-05 0.0000000000000000e+00  1.3587345027123818e+00 -3.7090532753201247e-02 0.0000000000000000e+00  1.0711131193274641e+00 -2.3301560176962121e-05 0.0000000000000000e+00  1.0711578921306630e+00 1.6881041826673638e-05 0.0000000000000000e+00  1.0707619961182644e+00 -2.2732456711222463e-04 0.0000000000000000e+00  1.0520600680136734e+00 -7.1057153909119292e-04 0.0000000000000000e+00  1.0710300994845285e+00 -1.0716016352954506e-04 0.0000000000000000e+00  1.0555986591984330e+00 -4.0098061583413981e-02 0.0000000000000000e+00  1.0667382946363320e+00 -1.1462455232657770e-03 0.0000000000000000e+00  7.4768787663699054e-01 -5.2012687923802335e-02 0.0000000000000000e+00  1.3108824289574024e+00 -8.7069973575209847e-02 0.0000000000000000e+00  1.0638475929521551e+00 9.1044282125821868e-04 0.0000000000000000e+00  1.0588216629222282e+00 9.1101022741237503e-04 0.0000000000000000e+00  1.5375306222876168e+00 4.6450598642072677e-01 0.0000000000000000e+00  9.0348540414251732e-01 2.5971518479079703e-01 0.0000000000000000e+00  1.0635369499282450e+00 -7.9614667170433643e-04 0.0000000000000000e+00  1.7212529960344856e+00 1.9383224886929365e-01 0.0000000000000000e+00  1.4959800854011946e+00 -5.1367155720600899e-01 0.0000000000000000e+00  9.0962602139873738e-01 -2.4505339963591119e-01 0.0000000000000000e+00  1.0626408277420356e+00 4.6047449098878700e-04 0.0000000000000000e+00  1.0648857814646202e+00 -3.2212730309316197e-04 0.0000000000000000e+00  1.0633730287544580e+00 3.9966601690214290e-04 0.0000000000000000e+00  1.0673785554580748e+00 -1.2453660517682331e-03 0.0000000000000000e+00  1.0710023007057583e+00 -1.1803735914679930e-05 0.0000000000000000e+00  1.0552177315807578e+00 -5.5720481941678125e-03 0.0000000000000000e+00  1.4062432006523959e+00 1.6616013340749720e-06 0.0000000000000000e+00  1.0717299148591803e+00 -3.0217554826277612e-04 0.0000000000000000e+00  1.0650437810405120e+00 6.8324911619347241e-04 0.0000000000000000e+00  1.4062421399749243e+00 -2.1561482788093883e-07 0.0000000000000000e+00  1.0675136133137091e+00 -9.7408663631196307e-04 0.0000000000000000e+00  1.0709333302068103e+00 -1.1227277664250909e-04 0.0000000000000000e+00  1.2686402362479317e+00 4.1807911379861985e-02 0.0000000000000000e+00  1.0709133816117407e+00 -2.0796830498482751e-05 0.0000000000000000e+00  7.1227261236159156e-01 6.4251218230417059e-02 0.0000000000000000e+00  1.0713549287847257e+00 -3.7669509055028926e-05 0.0000000000000000e+00  1.0647998254384869e+00 1.3095659721605303e-04 0.0000000000000000e+00  1.0613308577594232e+00 -3.8465138013573963e-05 0.0000000000000000e+00  1.0392977001600869e+00 -1.2494240526950485e-03 0.0000000000000000e+00  1.0710809224492457e+00 -1.4315299833360178e-04 0.0000000000000000e+00  1.0409051961231630e+00 1.1703909094705478e-03 0.0000000000000000e+00  1.0597088861322477e+00