<?xml version="1.0"?>
<VTKFile type="UnstructuredGrid"  version="0.1"  >
<UnstructuredGrid>
<Piece  NumberOfPoints="2446" NumberOfCells="4585">
<Points>
<DataArray  type="Float64"  NumberOfComponents="3"  format="ascii">0 0.41 0  0 0 0  2.2 0 0  2.2 0.41 0  0.2404508497187474 0.2293892626146237 0  0.25 0.2 0  0.2404508497187474 0.1706107373853764 0  0.2154508497187474 0.1524471741852423 0  0.1845491502812526 0.1524471741852423 0  0.1595491502812526 0.1706107373853764 0  0.15 0.2 0  0.1595491502812526 0.2293892626146237 0  0.1845491502812527 0.2475528258147577 0  0.2154508497187474 0.2475528258147577 0  1.1 0 0  1.1 0.41 0  0 0.205 0  0.55 0 0  0.55 0.41 0  0.275 0 0  0.275 0.41 0  1.65 0.41 0  1.65 0 0  0.8250000000000001 0.41 0  0.8250000000000001 0 0  1.375 0 0  1.375 0.41 0  1.925 0 0  1.925 0.41 0  1.5125 0.205 0  1.7875 0.205 0  0.6875 0.205 0  0.9625000000000001 0.205 0  1.2375 0.205 0  2.2 0.205 0  0.4687002074688797 0.2068568464730291 0  1.99375 0.2152743902439024 0  2.0625 0 0  2.0625 0.41 0  2.2 0.3075 0  0.4125 0 0  0.4125 0.41 0  1.7875 0.41 0  1.375 0.1486128048780488 0  1.5125 0 0  1.7875 0 0  1.5125 0.41 0  0.8250000000000001 0.2613871951219511 0  0.9625000000000001 0.41 0  0.9625000000000001 0 0  0.6875 0.41 0  0.6875 0 0  0.1375 0 0  0.1375 0.41 0  1.2375 0 0  1.1 0.1486128048780487 0  1.2375 0.41 0  1.65 0.1486128048780487 0  1.126715909090909 0.2793064024390244 0  1.676715909090909 0.2793064024390244 0  0.8517159090909092 0.1306935975609756 0  1.348284090909091 0.2793064024390244 0  0.34375 0.3032389320646208 0  1.894702181800738 0.1282910975492754 0  2.092797818199262 0.1282910975492754 0  1.85625 0.3075 0  0.61875 0.3075 0  0.61875 0.1025 0  0.3648540804333487 0.1240075933101478 0  0 0.3075 0  0 0.1025 0  2.099172119769978 0.25625 0  0.48125 0.09238439620688085 0  0.5781001037344399 0.2059284232365146 0  0.48125 0.3196743479159776 0  0.7265881057911006 0.3055240343720796 0  1.99375 0.08395950269330846 0  1.459960956013612 0.3075 0  1.569025960719943 0.2986889805672169 0  0.75625 0.08213100772579164 0  1.03125 0.3278689922742084 0  0.923871252904788 0.3078247185783941 0  1.959375 0.3126371951219512 0  1.749222215368287 0.1025 0  1.275777784631713 0.1025 0  2.2 0.1025 0  1.225938124459196 0.3075 0  1.550777784631713 0.1025 0  1.000777784631713 0.1025 0  1.44375 0.07430640243902442 0  1.16875 0.07430640243902437 0  1.899250267340833 0.2229966846119207 0  0.1020898364287272 0.3140258291809757 0  1.766482954545455 0.2934032012195123 0  0.3405058858996321 0.2119987970531874 0  0.7710785630958338 0.1710968191298857 0  1.046078563095834 0.2389031808701144 0  0.2 0.3400647632937836 0  1.421109702350723 0.2261157654379721 0  0.2800464974185557 0.08982544815605742 0  0.098916018031319 0.09171660955420841 0  2.13125 0 0  2.118919042110979 0.3422084711244843 0  1.30625 0.41 0  0.89375 0 0  1.597888256393107 0.2173787389261347 0  0.20625 0 0  1.829299675393195 0.07400700849299596 0  1.71875 0.41 0  1.16875 0.41 0  2.038220665644273 0.332420740103091 0  0.34375 0 0  0.417496017710808 0.2696595573092803 0  0.2 0.07687845740457822 0  0.9295982307099278 0.1343158415898188 0  0.07390688010811153 0.1697064032433452 0  0.5238366813727013 0.2578302467013575 0  0.05452951551825875 0.25625 0  0.5229630068078351 0.1548816096928243 0  1.452769549894695 0.1548122580621249 0  1.369219062229598 0.07430640243902442 0  1.30625 0 0  0.8504409521244898 0.3356935975609756 0  0.8821881244591965 0.205 0  1.720943423819132 0.1714577452753128 0  1.157188124459196 0.205 0  1.094219062229598 0.07430640243902437 0  1.03125 0 0  1.304056576180868 0.1714577452753128 0  1.67579304192913 0.07430640243902437 0  0.2751941921308361 0.3346083473122598 0  1.209670467133757 0.1362100266964769 0  1.025335513626278 0.1700681449722324 0  0.7562500000000001 0.41 0  1.58125 0 0  0.7567170593862014 0.2409196493502535 0  0.6926714215682891 0.1272249611432207 0  0.4139715849905988 0.3397932387114203 0  0.9840787304190477 0.2717749043358119 0  0.06875000000000001 0.41 0  0 0.35875 0  0.9281250000000001 0.06276726142697993 0  0.5507396469029935 0.3219409231578227 0  0.5504468037989405 0.09136885600634273 0  1.58125 0.41 0  1.631724228912893 0.3381867502687533 0  1.825608881788174 0.14499488549201 0  1.85625 0 0  1.44375 0 0  1.44375 0.41 0  1.85625 0.41 0  2.13125 0.41 0  0.7562500000000001 0 0  0.89375 0.41 0  0.4812500000000001 0 0  0.34375 0.41 0  0.4812500000000001 0.41 0  0.20625 0.41 0  0.06875000000000001 0 0  1.16875 0 0  0.61875 0 0  0.61875 0.41 0  1.03125 0.41 0  1.71875 0 0  1.99375 0 0  1.99375 0.41 0  1.340625 0.3489494290853124 0  1.134375 0.3489494290853123 0  1.700180620188976 0.3438659752031281 0  2.135782184673599 0.07126652247502523 0  1.668441847249787 0.2129203728327609 0  1.295782514339747 0.2378437748815763 0  0.8233075729931248 0.06842334294821524 0  1.409375 0.3520314716057996 0  0.403505597322782 0.182067236678212 0  0.378125 0.05794951541303489 0  0.3043468223249023 0.1518321115979534 0  2.129248544730567 0.1906135162504124 0  2.060771381434487 0.1989445750470348 0  2.013252586573865 0.1496169464686054 0  1.942766402200229 0.1734448904596831 0  1.895522487186454 0.06076163953489683 0  2.069553871656643 0.06605731020975725 0  1.274680914880868 0.3520219391081363 0  1.614713220494657 0.09473434380863296 0  0.7899021319497519 0.3149123934144827 0  0.69518737419149 0.0634051089053758 0  0.2971740475496061 0.2592172353407536 0  1.72990325744076 0.2380068107952482 0  1.356580098625191 0.2120393231351682 0  2.034370752044885 0.2668681600792073 0  1.51768709249349 0.3426260931494756 0  1.561883724969884 0.1650446847858835 0  1.197344062229598 0.2523725417393646 0  1.804085235518364 0.3468178408964637 0  1.817887819205233 0.2589243285818559 0  1.905897727272727 0.3485060975609756 0  0.6719798073392919 0.2688965171178177 0  0 0.05125 0  0.653125 0.35875 0  0.6396896119294488 0.1627615407790282 0  0.4274150154087412 0.1242548552168279 0  1.192836486056382 0.3562350748565544 0  0.8279124365364005 0.183856489168822 0  1.097485222388854 0.2083571153401724 0  1.28257088594801 0.2944411014911587 0  1.474860187679412 0.2504218616229368 0  1.406767003493824 0.2829282258560709 0  0.446875 0.04619219810344041 0  0.515625 0.04585361801037557 0  0.592043440706648 0.05125 0  1.845656689180403 0.1998310418452388 0  2.144958525570388 0.2909790873294231 0  0.6171090763650112 0.2492366900333857 0  2.2 0.15375 0  0.5145586920831158 0.3648371739579888 0  1.57794966442982 0.3540357145964566 0  0.721875 0.3633107922168974 0  0.0496154796471391 0.333125 0  0.5843750000000001 0.3662560860076676 0  0.5810878747760798 0.1474002776121195 0  1.508991196088596 0.1421783375065625 0  0.8840670607017558 0.2640994375393898 0  0.09776612425612034 0.2204896805326566 0  1.50436820029908 0.06143401634903343 0  1.223857000523521 0.0823554862453532 0  1.153316824384777 0.1289850171317837 0  2.148922302309752 0.1258841779285271 0  0.309375 0.04312325590431198 0  1.621993280276081 0.2841214267927899 0  1.550118654119087 0.2461998729100966 0  1.327182649291491 0.1216967252533594 0  1.051977450479407 0.1221382572915816 0  1.753125 0.04556020050186112 0  1.271875 0.04556020050186116 0  0.9816084133102366 0.05126138213476004 0  1.039051841454368 0.0572224914831029 0  0.9719230514536006 0.3480477870845102 0  1.94956388244759 0.1180512551534177 0  1.949997712993411 0.04965831614304109 0  1.771961817615021 0.1530278789497521 0  1.909246823951428 0.2812757146784527 0  0.2459536687882397 0.04668633953831142 0  1.948575539857022 0.2445328248721197 0  1.697271520964565 0.1233917627620729 0  0.7964897648514618 0.1211426571931604 0  1.065625 0.3689344961371042 0  1.085849084308977 0.3170853572226867 0  0.4702981435440001 0.260434880697798 0  1.577403511714593 0.05463601888079143 0  0.05622663515370135 0.05493816910862376 0  0.3267207591099919 0.3566194660323104 0  0.9003051618565143 0.3564049499960621 0  1.751571320346033 0.3651102912045228 0  0.1583785085108421 0.2994699345738728 0  0.1455283439499995 0.3542795598723423 0  2.2 0.35875 0  0.2347662494194072 0.298325008655211 0  0.1527284455616188 0.1065771775690181 0  0.1382139529076665 0.05427454456341477 0  0.8749341636311069 0.05110114999892954 0  0.643661668713109 0.05693499781019222 0  1.466879772203159 0.3611261772912453 0  1.990280163552011 0.3564754268533217 0  1.17471064520912 0.2990917256188288 0  0.5202693090594349 0.206382495511728 0  0 0.25625 0  2.2 0.25625 0  2.2 0.05125 0  0 0.15375 0  1.853978576207987 0.35875 0  0.9787513713939683 0.1487523696999336 0  0.240625 0.3722153812029779 0  1.515638456102889 0.2882700110184686 0  0.09048297387599738 0.3637717362208066 0  2.150453692751374 0.2387066338105111 0  1.323782677156475 0.04897634338873398 0  0.8074131292871642 0.3624701995505916 0  1.409375 0.03715320121951221 0  1.406484531114799 0.1087852750766809 0  1.134375 0.03715320121951218 0  1.627401732573545 0.04552157221025036 0  0.1170173172005315 0.1427610859166811 0  2.045405893604797 0.1105340662939892 0  1.255408269734577 0.1577307500159216 0  2.028125 0.03707597992059326 0  0.4743610090857199 0.1421513964721819 0  0.9354010469015898 0.250631300585664 0  0.04420832937638274 0.128125 0  0.8922386349349938 0.0992956419364831 0  0.1197849154434487 0.2663398672460083 0  1.248258025468107 0.2565907092181813 0  0.3746885856929528 0.370723531618974 0  1.203125 0.0366132337404304 0  0.5724622277005015 0.2751253816079333 0  0.3365425205162783 0.08395777655057959 0  2.072662025974815 0.2975086504196739 0  0.4581080832182547 0.3648371739579888 0  0.3874522734668214 0.2295447548840689 0  0.7827853612484443 0.04106550386289586 0  1.887722846421017 0.1760882698830035 0  1.472640588990488 0.1118278026240017 0  1.865937103925594 0.2604137786483804 0  1.463913572748262 0.2030442564990043 0  1.376426316059077 0.3186741374914345 0  0.6641993820150034 0.3141688596240831 0  0.2943117490824315 0.2130987422685822 0  0.3478153998082709 0.1666571081082676 0  0.3427990510599805 0.2575950027870776 0  0.7997118993855807 0.2216171933356366 0  
[...]
<PointData  Vectors="f_31"> 
<DataArray  type="Float64"  Name="f_31"  NumberOfComponents="3" format="ascii">2.1983733958982041e-06 3.5136439869567235e-08 0.0000000000000000e+00  -2.2830142372498949e-06 -3.1357292246906618e-08 0.0000000000000000e+00  3.8317037678415542e-06 -3.8261724478734082e-09 0.0000000000000000e+00  -1.6386873146202627e-05 -9.3976338765206735e-09 0.0000000000000000e+00  -4.1663927318231301e-06 -4.0749388554995620e-06 0.0000000000000000e+00  -1.2551142582173680e-06 -8.4714878400037507e-06 0.0000000000000000e+00  4.2510736016828848e-07 -6.5124721331677688e-06 0.0000000000000000e+00  -5.1220639650420265e-06 3.4498468065429711e-06 0.0000000000000000e+00  -1.4220261586709131e-06 2.1004743956300418e-06 0.0000000000000000e+00  3.8534066838709176e-06 -2.0628582781921340e-06 0.0000000000000000e+00  4.8840717012634494e-07 1.7234752240546646e-06 0.0000000000000000e+00  -1.2039035855369657e-05 -4.3795700734219636e-06 0.0000000000000000e+00  5.0235243188380575e-06 5.6597292926195311e-06 0.0000000000000000e+00  -1.3845471364503081e-05 1.0871219997406439e-07 0.0000000000000000e+00  -2.5547769193293056e-06 4.4142203198069768e-11 0.0000000000000000e+00  1.8166834631530679e-08 -9.4231437828112222e-09 0.0000000000000000e+00  1.5000043413597721e+00 -6.8266593495409106e-07 0.0000000000000000e+00  9.7282155500071161e-06 1.6403849887532092e-07 0.0000000000000000e+00  7.1127736023475415e-06 5.7163673441878009e-07 0.0000000000000000e+00  2.1538725051644357e-06 2.3534924128149096e-07 0.0000000000000000e+00  -2.1733560149000226e-06 -1.2188035057386559e-07 0.0000000000000000e+00  3.9144855446677352e-07 -1.1593778148375714e-09 0.0000000000000000e+00  3.2577819657367637e-07 -6.7908410651413633e-09 0.0000000000000000e+00  1.6962428438169061e-06 1.9406349587867336e-08 0.0000000000000000e+00  -4.9083929226464333e-06 1.2799946738825148e-08 0.0000000000000000e+00  -3.8085215536022283e-06 3.8545853000589322e-09 0.0000000000000000e+00  -6.9318290686267852e-07 2.3277988717861618e-08 0.0000000000000000e+00  -2.9373645373507407e-06 1.5242255361247121e-08 0.0000000000000000e+00  -2.2495650655095287e-06 -7.1460955401496344e-09 0.0000000000000000e+00  1.1338380437761533e+00 5.2798285629488816e-05 0.0000000000000000e+00  1.1339257927937993e+00 2.4157278209237853e-05 0.0000000000000000e+00  1.1674546320426995e+00 -3.3651611701799450e-02 0.0000000000000000e+00  1.1342644179754586e+00 -1.5054732737634594e-03 0.0000000000000000e+00  1.1335098546696463e+00 -7.5484853746182038e-05 0.0000000000000000e+00  1.1337978244456055e+00 -4.3566303903513184e-05 0.0000000000000000e+00  -1.3014399322825429e-01 -8.0939646265374227e-02 0.0000000000000000e+00  1.1337714914075443e+00 -4.7075778839424796e-05 0.0000000000000000e+00  2.8328643796537460e-07 1.1300592623122526e-08 0.0000000000000000e+00  -9.3250060976539967e-07 -1.5193869160249189e-08 0.0000000000000000e+00  1.1323873987029336e+00 -3.1019139171149515e-05 0.0000000000000000e+00  -1.1388377696025395e-06 1.4378475918542280e-07 0.0000000000000000e+00  3.0692405368917561e-06 -3.1669097225580368e-07 0.0000000000000000e+00  -5.9774029921436436e-06 -3.1008550246719762e-09 0.0000000000000000e+00  1.1336823846926656e+00 3.1620299142438175e-05 0.0000000000000000e+00  -2.1772996799685742e-08 -5.9994103173126385e-09 0.0000000000000000e+00  -4.0960503975476458e-06 -1.3838349254554193e-09 0.0000000000000000e+00  1.0978509945605046e-06 1.4489805816312343e-08 0.0000000000000000e+00  1.1421934689599753e+00 9.5612109945204143e-04 0.0000000000000000e+00  -1.7372103773964257e-06 -1.2553449731721641e-08 0.0000000000000000e+00  2.3965405160676854e-06 -3.7287631175637572e-09 0.0000000000000000e+00  -7.3990345285665919e-06 -2.3892924941627737e-07 0.0000000000000000e+00  -1.7029945571106016e-05 6.5663640707144238e-07 0.0000000000000000e+00  -3.8419127066847522e-06 5.9643248615829968e-07 0.0000000000000000e+00  -5.4670339908488712e-06 -5.6172083227630281e-07 0.0000000000000000e+00  2.9929388511260073e-07 1.0226537382759499e-08 0.0000000000000000e+00  1.1334803944733716e+00 -3.3833928622954056e-04 0.0000000000000000e+00  -1.5385974893049849e-06 2.8961968977009406e-09 0.0000000000000000e+00  1.1339513809051167e+00 1.4740176957627404e-05 0.0000000000000000e+00  1.1338232048079517e+00 -1.4436786896149229e-04 0.0000000000000000e+00  1.1335928760214389e+00 1.0997322494778707e-04 0.0000000000000000e+00  1.1320728324543916e+00 -8.1701719996790465e-03 0.0000000000000000e+00  1.1336613359556946e+00 -1.6968481099774010e-05 0.0000000000000000e+00  1.9997779212220312e+00 -1.4900932847399070e-01 0.0000000000000000e+00  1.1337143259132201e+00 -9.9322414017273287e-05 0.0000000000000000e+00  1.1338071497666535e+00 -1.5048796064366516e-04 0.0000000000000000e+00  1.1321195096402761e+00 1.8701598450354203e-05 0.0000000000000000e+00  1.2093065790931112e+00 4.9613943355021728e-02 0.0000000000000000e+00  1.1618183628444989e+00 -7.9471456279713346e-02 0.0000000000000000e+00  1.6204487180982219e+00 1.7231920039999810e-01 0.0000000000000000e+00  1.1249990089034836e+00 -3.6839681774408238e-07 0.0000000000000000e+00  1.1249901681852754e+00 3.1863051382434501e-08 0.0000000000000000e+00  1.1336908203355887e+00 -3.6499047509878509e-05 0.0000000000000000e+00  1.5238919519701535e+00 3.4991999467621926e-01 0.0000000000000000e+00  9.3414915552899613e-01 1.7626410472202095e-02 0.0000000000000000e+00  1.4371037452982380e+00 -2.3190720002792431e-01 0.0000000000000000e+00  1.1524171878658303e+00 4.3194946324127147e-02 0.0000000000000000e+00  1.1264089229893179e+00 -2.2863044604309641e-06 0.0000000000000000e+00  1.1327613771889695e+00 -5.7075113907210099e-05 0.0000000000000000e+00  1.1331158647533184e+00 9.1881359723751868e-05 0.0000000000000000e+00  1.1034915750403322e+00 -3.1928950676349141e-02 0.0000000000000000e+00  1.1246554240483051e+00 -5.2760217668893291e-06 0.0000000000000000e+00  1.1337010122438858e+00 4.0931386262585797e-04 0.0000000000000000e+00  1.1318626429810832e+00 -7.8928743997300630e-06 0.0000000000000000e+00  1.1319325203490862e+00 -2.1732654098448475e-04 0.0000000000000000e+00  1.1326975617070167e+00 -1.2806782849947036e-04 0.0000000000000000e+00  1.1322127336023216e+00 -2.5699437282482524e-04 0.0000000000000000e+00  1.1326994899558265e+00 1.2560434524619365e-05 0.0000000000000000e+00  1.1326303704724305e+00 1.2570749054698429e-04 0.0000000000000000e+00  1.1318554053925438e+00 -8.4334039210776438e-04 0.0000000000000000e+00  1.1161143639770001e+00 6.4115791095746140e-05 0.0000000000000000e+00  1.1158981176151823e+00 2.0226195314678919e-05 0.0000000000000000e+00  1.1338116862284398e+00 -8.7483710415833290e-06 0.0000000000000000e+00  1.1917881577494966e+00 2.6115357174112103e-01 0.0000000000000000e+00  1.1332244968405858e+00 3.7318962697676098e-05 0.0000000000000000e+00  -5.8300759366332588e-01 -8.4465970223602926e-03 0.0000000000000000e+00  1.1440427718684245e+00 -1.9723131977133383e-02 0.0000000000000000e+00  1.1340354035640872e+00 -4.9479338822442894e-04 0.0000000000000000e+00  1.4089691033913592e+00 2.2712501466905022e-01 0.0000000000000000e+00  1.1335841366361490e+00 -2.6283217513281968e-05 0.0000000000000000e+00  1.8770918993665116e+00 -1.1286311169806990e-01 0.0000000000000000e+00  1.1365267673619341e+00 -2.4281118762762358e-01 0.0000000000000000e+00  -5.6740747950290504e-07 1.0061579708793622e-08 0.0000000000000000e+00  1.1025817822733093e+00 1.1863250197075199e-04 0.0000000000000000e+00  -1.8908210509128530e-06 -3.3532118633863027e-09 0.0000000000000000e+00  -6.7076334415971782e-06 3.0522348804393513e-08 0.0000000000000000e+00  1.1339228459096675e+00 4.1618349126851642e-05 0.0000000000000000e+00  1.2899939577518192e-06 -4.4717268739164586e-07 0.0000000000000000e+00  1.1152993664889608e+00 -5.4035945318489430e-06 0.0000000000000000e+00  -2.6596024192696194e-06 -2.3427120540835540e-09 0.0000000000000000e+00  -2.0698782500274328e-06 2.0377736914899944e-10 0.0000000000000000e+00  1.1205061805041845e+00 8.0129932401629665e-05 0.0000000000000000e+00  -2.4488970289505643e-06 1.2474531206026967e-07 0.0000000000000000e+00  1.6767611666790463e+00 -4.5683525277993414e-01 0.0000000000000000e+00  1.5139769447533584e+00 -2.8045760222156035e-01 0.0000000000000000e+00  1.1327088823577232e+00 -2.8215644316831605e-03 0.0000000000000000e+00  1.3344922889345918e+00 -9.4931501490491288e-02 0.0000000000000000e+00  1.4638860517282297e+00 -2.4285752067971872e-01 0.0000000000000000e+00  1.3747465043401297e+00 1.3471883322593114e-01 0.0000000000000000e+00  1.3492685290347215e+00 3.8706873825465871e-01 0.0000000000000000e+00  1.1336738061296381e+00 7.7711387800281689e-05 0.0000000000000000e+00  1.1151725516123139e+00 -1.5103757925816232e-04 0.0000000000000000e+00  -5.9119300393898396e-07 -4.5919517834408643e-09 0.0000000000000000e+00  1.1147121698623543e+00 3.2164100886992578e-03 0.0000000000000000e+00  1.1364617224166502e+00 -3.4652259888172093e-03 0.0000000000000000e+00  1.1338070233228772e+00 6.0136158313497296e-05 0.0000000000000000e+00  1.1335010044813616e+00 -1.6632326313347512e-04 0.0000000000000000e+00  1.1158118945115789e+00 -1.3849634526334043e-04 0.0000000000000000e+00  -3.0186729560117646e-06 1.2274874289415685e-08 0.0000000000000000e+00  1.1336116027597427e+00 -2.9793123950271739e-05 0.0000000000000000e+00  1.1153463394446743e+00 -1.9314661720756010e-04 0.0000000000000000e+00  1.6667200558752173e+00 6.4861777262531450e-02 0.0000000000000000e+00  1.1336502048692336e+00 -7.0147761705657537e-05 0.0000000000000000e+00  1.1335279463921570e+00 -8.5971156868712103e-04 0.0000000000000000e+00  -4.3204023657240550e-06 5.9472483400730384e-08 0.0000000000000000e+00  -1.3293800103300314e-05 -1.4536239319659948e-08 0.0000000000000000e+00  1.1597818873567980e+00 -2.1109767257595073e-03 0.0000000000000000e+00  1.1659821544710003e+00 -8.3703049614530900e-02 0.0000000000000000e+00  1.4737276230118606e+00 -2.1926572406275058e-01 0.0000000000000000e+00  1.1345878130283007e+00 -4.6538149493611651e-04 0.0000000000000000e+00  -3.1477934725744821e-06 -3.3168662204412396e-07 0.0000000000000000e+00  6.5625068842908374e-01 -1.2362148345942101e-07 0.0000000000000000e+00  1.0846803874509852e+00 -1.0483539573171931e-03 0.0000000000000000e+00  1.2378407655483050e+00 -6.7554585981966536e-02 0.0000000000000000e+00  1.2478039799898153e+00 1.1531144769365745e-01 0.0000000000000000e+00  -4.8673766470470127e-06 3.0177128851289312e-09 0.0000000000000000e+00  1.1117951543865705e+00 3.3093884676031011e-04 0.0000000000000000e+00  1.1338305438020468e+00 2.1707980037048357e-06 0.0000000000000000e+00  -3.5519187335754063e-06 1.8278350157788622e-08 0.0000000000000000e+00  -1.0407590660433647e-05 5.8027687576211515e-09 0.0000000000000000e+00  -4.3420000810081915e-06 -3.8050195404199688e-08 0.0000000000000000e+00  1.6477298944928475e-06 1.3984912081612069e-08 0.0000000000000000e+00  -2.3282268515132097e-06 6.5549050196543731e-09 0.0000000000000000e+00  -3.9527564397545358e-06 -1.0172955263545551e-07 0.0000000000000000e+00  1.0215269462699329e-06 -1.8312244987122248e-08 0.0000000000000000e+00  1.0620246673608092e-05 -1.4408062531134263e-06 0.0000000000000000e+00  8.2974883311671212e-06 -6.3813833903523406e-07 0.0000000000000000e+00  1.4073549705803160e-06 8.7843210950760931e-07 0.0000000000000000e+00  -3.2644858020166237e-06 -3.4289074156550959e-07 0.0000000000000000e+00  9.9621964162173264e-07 1.0720994910473477e-07 0.0000000000000000e+00  -1.9043573209223970e-07 -8.8800079577856179e-10 0.0000000000000000e+00  -1.1285056945556643e-05 2.2980461754840930e-06 0.0000000000000000e+00  -8.3050501567768532e-06 -9.5628462468774647e-07 0.0000000000000000e+00  -8.8478737611840116e-07 -1.2757474876604487e-09 0.0000000000000000e+00  -7.5075459353447432e-06 -1.0053115536704912e-08 0.0000000000000000e+00  -2.1217132688677368e-06 -7.4630104114091008e-09 0.0000000000000000e+00  -6.2181351478588037e-07 1.5119701176682979e-08 0.0000000000000000e+00  1.0800021697038873e+00 1.4452895535614158e-04 0.0000000000000000e+00  1.0808652012319575e+00 1.0325441738123795e-04 0.0000000000000000e+00  1.0979588971221166e+00 1.3855752349744413e-04 0.0000000000000000e+00  1.1099677113108812e+00 -2.6472328983684823e-04 0.0000000000000000e+00  1.1338948324920219e+00 6.6287069286186703e-05 0.0000000000000000e+00  1.1335649834709007e+00 -2.7562561485328059e-05 0.0000000000000000e+00  1.0925369693961655e+00 -8.0042816079683495e-03 0.0000000000000000e+00  1.0672447990684579e+00 -7.5351328839059556e-05 0.0000000000000000e+00  -4.1724715337573887e-01 -3.1670057522257856e-03 0.0000000000000000e+00  1.5550787965689457e+00 1.6867141221653142e-01 0.0000000000000000e+00  3.0311421669469152e-01 -1.5097355730924281e-01 0.0000000000000000e+00  1.1337258330901956e+00 -3.7068622461264903e-05 0.0000000000000000e+00  1.1338338239967141e+00 -4.5546272937819773e-05 0.0000000000000000e+00  1.1339113918002990e+00 -7.3824737116601403e-05 0.0000000000000000e+00  1.1338181979762325e+00 -5.0770673661724823e-05 0.0000000000000000e+00  1.0787329879047776e+00 -5.2301473644059269e-05 0.0000000000000000e+00  1.0975952390317907e+00 -3.3611618069966358e-04 0.0000000000000000e+00  1.0678503133555628e+00 1.2110732389068029e-04 0.0000000000000000e+00  1.1310661328256586e+00 -3.5425836294883517e-05 0.0000000000000000e+00  1.1353932296774343e+00 1.3183464766346532e-02 0.0000000000000000e+00  1.0205452028168296e+00 -6.8474408010509497e-02 0.0000000000000000e+00  7.5434815039867487e-01 7.3626129041103147e-02 0.0000000000000000e+00  1.1337799915956444e+00 3.4855350649731179e-05 0.0000000000000000e+00  1.1334923772553278e+00 -4.1744196258962510e-05 0.0000000000000000e+00  1.1337534460048240e+00 4.6280995381148615e-06 0.0000000000000000e+00  1.1017109624548267e+00 6.4438509122238260e-05 0.0000000000000000e+00  1.1338776013057992e+00 8.6866990897751348e-05 0.0000000000000000e+00  1.1336728044967084e+00 -6.8504135127365711e-05 0.0000000000000000e+00  1.0894996333906135e+00 -1.3615257140621551e-04 0.0000000000000000e+00  1.1336910284838286e+00 4.5106402930413335e-06 0.0000000000000000e+00  1.0828238999285316e+00 1.6683252261647330e-04 0.0000000000000000e+00  1.2676645395322845e+00 6.7474054191873259e-02 0.0000000000000000e+00  6.5624824013352201e-01 -2.0562902452409150e-07 0.0000000000000000e+00  9.1139685264225934e-01 7.3756337558320201e-02 0.0000000000000000e+00  1.2502449687573802e+00 -2.9161392474844994e-02 0.0000000000000000e+00  1.7871509087842763e+00 4.7593003243657450e-01 0.0000000000000000e+00  1.0445871721800102e+00 9.5367013675961097e-06 0.0000000000000000e+00  1.1387570868921841e+00 -8.3388855523650173e-03 0.0000000000000000e+00  1.1335702906849590e+00 -3.6424049471614007e-04 0.0000000000000000e+00  1.1335499183257300e+00 1.3210992854337344e-06 0.0000000000000000e+00  1.1336409701573784e+00 -1.7066397607402666e-05 0.0000000000000000e+00  1.1336584446982290e+00 -1.0024168281188919e-04 0.0000000000000000e+00  1.1141803706659199e+00 1.7695149312899777e-01 0.0000000000000000e+00  7.9670411309445166e-01 6.8447685673004827e-02 0.0000000000000000e+00  7.9108446951482914e-01 -7.0374577729468840e-02 0.0000000000000000e+00  1.1338750483002236e+00 -2.3305405733170470e-06 0.0000000000000000e+00  1.1334842757318890e+00 -5.2024165072433677e-05 0.0000000000000000e+00  1.3855042536712541e+00 -6.4365763687975350e-02 0.0000000000000000e+00  1.1336014202579683e+00 -1.0863832171703872e-05 0.0000000000000000e+00  8.0610630683605533e-01 -4.3778218672595570e-02 0.0000000000000000e+00  1.0577100855415391e+00 2.6215182425834519e-04 0.0000000000000000e+00  9.4841974940648011e-01 3.0634096712840498e-02 0.0000000000000000e+00  9.4285514167658346e-01 9.6791854477012898e-02 0.0000000000000000e+00  7.4189327158133067e-01 4.3131247790914824e-02 0.0000000000000000e+00  1.3661211135962135e+00 1.2349719300487309e-01 0.0000000000000000e+00  1.1338095515608548e+00 1.3269566694303154e-04 0.0000000000000000e+00  1.1370871802689084e+00 -3.1082585427579255e-04 0.0000000000000000e+00  1.2254651388567959e+00 1.8436019989882046e-01 0.0000000000000000e+00  1.0830433462721611e+00 4.1433338555293529e-05 0.0000000000000000e+00  1.1247643559719496e+00 -1.6035692620203229e-04 0.0000000000000000e+00  1.1336365070996146e+00 -1.1979036327176365e-04 0.0000000000000000e+00  1.1337146731295875e+00 -1.8753983707984454e-04 0.0000000000000000e+00  1.4065709379289892e+00 2.2494687444933405e-02 0.0000000000000000e+00  1.1336005960035223e+00 1.0315842241209642e-04 0.0000000000000000e+00  1.1336539792460734e+00 6.4235558129100361e-06 0.0000000000000000e+00  1.1335875754735707e+00 -1.3813324109145463e-05 0.0000000000000000e+00  1.1331722125134898e+00 -5.7052705786746368e-04 0.0000000000000000e+00  9.8135491461498814e-01 -8.5799621931120220e-05 0.0000000000000000e+00  9.8105449352795304e-01 -3.2782136822375417e-04 0.0000000000000000e+00  1.0287125000978916e+00 -5.3387748192636577e-04 0.0000000000000000e+00  1.0628320774064557e+00 -1.8758023328656014e-04 0.0000000000000000e+00  1.0845985575103680e+00 2.3276503600576536e-04 0.0000000000000000e+00  1.1335215675646013e+00 -6.5216147360680550e-05 0.0000000000000000e+00  1.0145396669895901e+00 -1.8300062356538218e-05 0.0000000000000000e+00  1.1338893480489782e+00 3.0284340129044125e-05 0.0000000000000000e+00  1.1336574793753866e+00 4.1295605110160299e-06 0.0000000000000000e+00  1.3376894129561343e+00 -9.3716378344246523e-02 0.0000000000000000e+00  1.1338014661114193e+00 -3.5549562362691002e-05 0.0000000000000000e+00  1.1337220848949325e+00 -5.9766635644886936e-05 0.0000000000000000e+00  1.1307987823444841e+00 -1.7943346497251603e-02 0.0000000000000000e+00  9.3270358138272802e-01 -1.0216380602624593e-04 0.0000000000000000e+00  1.1310854322023995e+00 -1.0691966964333586e-04 0.0000000000000000e+00  1.4761040229632278e+00 -4.1885413373343472e-01 0.0000000000000000e+00  1.0487326172073179e+00 2.2832818560697844e-04 0.0000000000000000e+00  7.3678506575792224e-01 -7.6060095973444444e-02 0.0000000000000000e+00  1.4390634505559754e+00 -6.4191684258179962e-02 0.0000000000000000e+00  1.0424724714141718e+00 7.9230334924829083e-04 0.0000000000000000e+00  9.7431985127907417e-01 2.7425374870574586e-06 0.0000000000000000e+00  1.5436955511308601e+00 4.7799561661493506e-01 0.0000000000000000e+00  1.0123562243732727e+00 1.8172712770506835e-01 0.0000000000000000e+00  1.0273404871449627e+00 2.2755450868993638e-04 0.0000000000000000e+00  1.9270890330204224e+00 2.4361865948956821e-01 0.0000000000000000e+00  1.4489423583065737e+00 -5.0528441783477995e-01 0.0000000000000000e+00  9.7053131421376893e-01 -1.8911616463689510e-01 0.0000000000000000e+00  1.0222873906841987e+00 -1.8628184940881131e-03 0.0000000000000000e+00  9.0361428606201910e-01 -1.0457758286485797e-01 0.0000000000000000e+00  1.0099087549526993e+00 7.0692357444961901e-05 0.0000000000000000e+00  1.0434874879138885e+00 5.0609509788206077e-05 0.0000000000000000e+00  1.1333919535448174e+00 -4.6183083047939919e-05 0.0000000000000000e+00  4.6168004824952735e-01 3.5778710479425685e-02 0.0000000000000000e+00  1.4062434725614419e+00 -7.4626384957635912e-07 0.0000000000000000e+00  1.1338256603118329e+00 3.5576003024760387e-05 0.0000000000000000e+00  1.0284307084818398e+00 -6.8756373810733163e-04 0.0000000000000000e+00  1.4062430929639649e+00 -5.3263555719828217e-07 0.0000000000000000e+00  1.0281344896542033e+00 -8.9949462710488525e-06 0.0000000000000000e+00  1.1332231237132673e+00 -1.5019031023735625e-03 0.0000000000000000e+00  1.1465943889099304e+00 5.6485790181955861e-02 0.0000000000000000e+00  1.1336814349596196e+00 -1.3328824630940908e-05 0.0000000000000000e+00  7.1805192872360490e-01 1.0100322082956788e-01 0.0000000000000000e+00  1.1336987499325291e+00 -1.9788848106321531e-05 0.0000000000000000e+00  1.0111082190257472e+00 -1.6660318424502237e-04 0.0000000000000000e+00  9.9197769260487034e-01 5.5343752890220027e-03 0.0000000000000000e+00  8.8303689112740746e-01 1.2215131894342679e-04 0.0000000000000000e+00  1.1332396498109152e+00 4.5553547638252626e-05 0.0000000000000000e+00  8.8374378043054158e-01 6.0450098061388916e-05 0.0000000000000000e+00  9.79389962