<?xml version="1.0"?>
<VTKFile type="UnstructuredGrid"  version="0.1"  >
<UnstructuredGrid>
<Piece  NumberOfPoints="2446" NumberOfCells="4585">
<Points>
<DataArray  type="Float64"  NumberOfComponents="3"  format="ascii">0 0.41 0  0 0 0  2.2 0 0  2.2 0.41 0  0.2404508497187474 0.2293892626146237 0  0.25 0.2 0  0.2404508497187474 0.1706107373853764 0  0.2154508497187474 0.1524471741852423 0  0.1845491502812526 0.1524471741852423 0  0.1595491502812526 0.1706107373853764 0  0.15 0.2 0  0.1595491502812526 0.2293892626146237 0  0.1845491502812527 0.2475528258147577 0  0.2154508497187474 0.2475528258147577 0  1.1 0 0  1.1 0.41 0  0 0.205 0  0.55 0 0  0.55 0.41 0  0.275 0 0  0.275 0.41 0  1.65 0.41 0  1.65 0 0  0.8250000000000001 0.41 0  0.8250000000000001 0 0  1.375 0 0  1.375 0.41 0  1.925 0 0  1.925 0.41 0  1.5125 0.205 0  1.7875 0.205 0  0.6875 0.205 0  0.9625000000000001 0.205 0  1.2375 0.205 0  2.2 0.205 0  0.4687002074688797 0.2068568464730291 0  1.99375 0.2152743902439024 0  2.0625 0 0  2.0625 0.41 0  2.2 0.3075 0  0.4125 0 0  0.4125 0.41 0  1.7875 0.41 0  1.375 0.1486128048780488 0  1.5125 0 0  1.7875 0 0  1.5125 0.41 0  0.8250000000000001 0.2613871951219511 0  0.9625000000000001 0.41 0  0.9625000000000001 0 0  0.6875 0.41 0  0.6875 0 0  0.1375 0 0  0.1375 0.41 0  1.2375 0 0  1.1 0.1486128048780487 0  1.2375 0.41 0  1.65 0.1486128048780487 0  1.126715909090909 0.2793064024390244 0  1.676715909090909 0.2793064024390244 0  0.8517159090909092 0.1306935975609756 0  1.348284090909091 0.2793064024390244 0  0.34375 0.3032389320646208 0  1.894702181800738 0.1282910975492754 0  2.092797818199262 0.1282910975492754 0  1.85625 0.3075 0  0.61875 0.3075 0  0.61875 0.1025 0  0.3648540804333487 0.1240075933101478 0  0 0.3075 0  0 0.1025 0  2.099172119769978 0.25625 0  0.48125 0.09238439620688085 0  0.5781001037344399 0.2059284232365146 0  0.48125 0.3196743479159776 0  0.7265881057911006 0.3055240343720796 0  1.99375 0.08395950269330846 0  1.459960956013612 0.3075 0  1.569025960719943 0.2986889805672169 0  0.75625 0.08213100772579164 0  1.03125 0.3278689922742084 0  0.923871252904788 0.3078247185783941 0  1.959375 0.3126371951219512 0  1.749222215368287 0.1025 0  1.275777784631713 0.1025 0  2.2 0.1025 0  1.225938124459196 0.3075 0  1.550777784631713 0.1025 0  1.000777784631713 0.1025 0  1.44375 0.07430640243902442 0  1.16875 0.07430640243902437 0  1.899250267340833 0.2229966846119207 0  0.1020898364287272 0.3140258291809757 0  1.766482954545455 0.2934032012195123 0  0.3405058858996321 0.2119987970531874 0  0.7710785630958338 0.1710968191298857 0  1.046078563095834 0.2389031808701144 0  0.2 0.3400647632937836 0  1.421109702350723 0.2261157654379721 0  0.2800464974185557 0.08982544815605742 0  0.098916018031319 0.09171660955420841 0  2.13125 0 0  2.118919042110979 0.3422084711244843 0  1.30625 0.41 0  0.89375 0 0  1.597888256393107 0.2173787389261347 0  0.20625 0 0  1.829299675393195 0.07400700849299596 0  1.71875 0.41 0  1.16875 0.41 0  2.038220665644273 0.332420740103091 0  0.34375 0 0  0.417496017710808 0.2696595573092803 0  0.2 0.07687845740457822 0  0.9295982307099278 0.1343158415898188 0  0.07390688010811153 0.1697064032433452 0  0.5238366813727013 0.2578302467013575 0  0.05452951551825875 0.25625 0  0.5229630068078351 0.1548816096928243 0  1.452769549894695 0.1548122580621249 0  1.369219062229598 0.07430640243902442 0  1.30625 0 0  0.8504409521244898 0.3356935975609756 0  0.8821881244591965 0.205 0  1.720943423819132 0.1714577452753128 0  1.157188124459196 0.205 0  1.094219062229598 0.07430640243902437 0  1.03125 0 0  1.304056576180868 0.1714577452753128 0  1.67579304192913 0.07430640243902437 0  0.2751941921308361 0.3346083473122598 0  1.209670467133757 0.1362100266964769 0  1.025335513626278 0.1700681449722324 0  0.7562500000000001 0.41 0  1.58125 0 0  0.7567170593862014 0.2409196493502535 0  0.6926714215682891 0.1272249611432207 0  0.4139715849905988 0.3397932387114203 0  0.9840787304190477 0.2717749043358119 0  0.06875000000000001 0.41 0  0 0.35875 0  0.9281250000000001 0.06276726142697993 0  0.5507396469029935 0.3219409231578227 0  0.5504468037989405 0.09136885600634273 0  1.58125 0.41 0  1.631724228912893 0.3381867502687533 0  1.825608881788174 0.14499488549201 0  1.85625 0 0  1.44375 0 0  1.44375 0.41 0  1.85625 0.41 0  2.13125 0.41 0  0.7562500000000001 0 0  0.89375 0.41 0  0.4812500000000001 0 0  0.34375 0.41 0  0.4812500000000001 0.41 0  0.20625 0.41 0  0.06875000000000001 0 0  1.16875 0 0  0.61875 0 0  0.61875 0.41 0  1.03125 0.41 0  1.71875 0 0  1.99375 0 0  1.99375 0.41 0  1.340625 0.3489494290853124 0  1.134375 0.3489494290853123 0  1.700180620188976 0.3438659752031281 0  2.135782184673599 0.07126652247502523 0  1.668441847249787 0.2129203728327609 0  1.295782514339747 0.2378437748815763 0  0.8233075729931248 0.06842334294821524 0  1.409375 0.3520314716057996 0  0.403505597322782 0.182067236678212 0  0.378125 0.05794951541303489 0  0.3043468223249023 0.1518321115979534 0  2.129248544730567 0.1906135162504124 0  2.060771381434487 0.1989445750470348 0  2.013252586573865 0.1496169464686054 0  1.942766402200229 0.1734448904596831 0  1.895522487186454 0.06076163953489683 0  2.069553871656643 0.06605731020975725 0  1.274680914880868 0.3520219391081363 0  1.614713220494657 0.09473434380863296 0  0.7899021319497519 0.3149123934144827 0  0.69518737419149 0.0634051089053758 0  0.2971740475496061 0.2592172353407536 0  1.72990325744076 0.2380068107952482 0  1.356580098625191 0.2120393231351682 0  2.034370752044885 0.2668681600792073 0  1.51768709249349 0.3426260931494756 0  1.561883724969884 0.1650446847858835 0  1.197344062229598 0.2523725417393646 0  1.804085235518364 0.3468178408964637 0  1.817887819205233 0.2589243285818559 0  1.905897727272727 0.3485060975609756 0  0.6719798073392919 0.2688965171178177 0  0 0.05125 0  0.653125 0.35875 0  0.6396896119294488 0.1627615407790282 0  0.4274150154087412 0.1242548552168279 0  1.192836486056382 0.3562350748565544 0  0.8279124365364005 0.183856489168822 0  1.097485222388854 0.2083571153401724 0  1.28257088594801 0.2944411014911587 0  1.474860187679412 0.2504218616229368 0  1.406767003493824 0.2829282258560709 0  0.446875 0.04619219810344041 0  0.515625 0.04585361801037557 0  0.592043440706648 0.05125 0  1.845656689180403 0.1998310418452388 0  2.144958525570388 0.2909790873294231 0  0.6171090763650112 0.2492366900333857 0  2.2 0.15375 0  0.5145586920831158 0.3648371739579888 0  1.57794966442982 0.3540357145964566 0  0.721875 0.3633107922168974 0  0.0496154796471391 0.333125 0  0.5843750000000001 0.3662560860076676 0  0.5810878747760798 0.1474002776121195 0  1.508991196088596 0.1421783375065625 0  0.8840670607017558 0.2640994375393898 0  0.09776612425612034 0.2204896805326566 0  1.50436820029908 0.06143401634903343 0  1.223857000523521 0.0823554862453532 0  1.153316824384777 0.1289850171317837 0  2.148922302309752 0.1258841779285271 0  0.309375 0.04312325590431198 0  1.621993280276081 0.2841214267927899 0  1.550118654119087 0.2461998729100966 0  1.327182649291491 0.1216967252533594 0  1.051977450479407 0.1221382572915816 0  1.753125 0.04556020050186112 0  1.271875 0.04556020050186116 0  0.9816084133102366 0.05126138213476004 0  1.039051841454368 0.0572224914831029 0  0.9719230514536006 0.3480477870845102 0  1.94956388244759 0.1180512551534177 0  1.949997712993411 0.04965831614304109 0  1.771961817615021 0.1530278789497521 0  1.909246823951428 0.2812757146784527 0  0.2459536687882397 0.04668633953831142 0  1.948575539857022 0.2445328248721197 0  1.697271520964565 0.1233917627620729 0  0.7964897648514618 0.1211426571931604 0  1.065625 0.3689344961371042 0  1.085849084308977 0.3170853572226867 0  0.4702981435440001 0.260434880697798 0  1.577403511714593 0.05463601888079143 0  0.05622663515370135 0.05493816910862376 0  0.3267207591099919 0.3566194660323104 0  0.9003051618565143 0.3564049499960621 0  1.751571320346033 0.3651102912045228 0  0.1583785085108421 0.2994699345738728 0  0.1455283439499995 0.3542795598723423 0  2.2 0.35875 0  0.2347662494194072 0.298325008655211 0  0.1527284455616188 0.1065771775690181 0  0.1382139529076665 0.05427454456341477 0  0.8749341636311069 0.05110114999892954 0  0.643661668713109 0.05693499781019222 0  1.466879772203159 0.3611261772912453 0  1.990280163552011 0.3564754268533217 0  1.17471064520912 0.2990917256188288 0  0.5202693090594349 0.206382495511728 0  0 0.25625 0  2.2 0.25625 0  2.2 0.05125 0  0 0.15375 0  1.853978576207987 0.35875 0  0.9787513713939683 0.1487523696999336 0  0.240625 0.3722153812029779 0  1.515638456102889 0.2882700110184686 0  0.09048297387599738 0.3637717362208066 0  2.150453692751374 0.2387066338105111 0  1.323782677156475 0.04897634338873398 0  0.8074131292871642 0.3624701995505916 0  1.409375 0.03715320121951221 0  1.406484531114799 0.1087852750766809 0  1.134375 0.03715320121951218 0  1.627401732573545 0.04552157221025036 0  0.1170173172005315 0.1427610859166811 0  2.045405893604797 0.1105340662939892 0  1.255408269734577 0.1577307500159216 0  2.028125 0.03707597992059326 0  0.4743610090857199 0.1421513964721819 0  0.9354010469015898 0.250631300585664 0  0.04420832937638274 0.128125 0  0.8922386349349938 0.0992956419364831 0  0.1197849154434487 0.2663398672460083 0  1.248258025468107 0.2565907092181813 0  0.3746885856929528 0.370723531618974 0  1.203125 0.0366132337404304 0  0.5724622277005015 0.2751253816079333 0  0.3365425205162783 0.08395777655057959 0  2.072662025974815 0.2975086504196739 0  0.4581080832182547 0.3648371739579888 0  0.3874522734668214 0.2295447548840689 0  0.7827853612484443 0.04106550386289586 0  1.887722846421017 0.1760882698830035 0  1.472640588990488 0.1118278026240017 0  1.865937103925594 0.2604137786483804 0  1.463913572748262 0.2030442564990043 0  1.376426316059077 0.3186741374914345 0  0.6641993820150034 0.3141688596240831 0  0.2943117490824315 0.2130987422685822 0  0.3478153998082709 0.1666571081082676 0  0.3427990510599805 0.2575950027870776 0  0.7997118993855807 0.2216171933356366 0  
[...]
<PointData  Vectors="f_31"> 
<DataArray  type="Float64"  Name="f_31"  NumberOfComponents="3" format="ascii">3.3722721901017466e-05 4.0078400388878199e-05 0.0000000000000000e+00  4.2264831956528809e-05 -5.4019868249607985e-05 0.0000000000000000e+00  1.7299075850241464e-06 -1.8256399907533665e-06 0.0000000000000000e+00  -2.4170282638988908e-05 3.2781997820034920e-06 0.0000000000000000e+00  2.0054330639069471e-04 -1.5936233382609582e-05 0.0000000000000000e+00  9.4841352281008301e-05 2.7286681533216374e-05 0.0000000000000000e+00  1.3249016840164511e-04 8.8419695470843602e-06 0.0000000000000000e+00  6.4923971396049714e-05 -1.0709379417431725e-04 0.0000000000000000e+00  -3.7658378319913128e-05 -5.6557087996793196e-05 0.0000000000000000e+00  6.1401582521229458e-05 -5.5562944704877356e-05 0.0000000000000000e+00  -2.4039701307303478e-05 1.7822365410480293e-05 0.0000000000000000e+00  4.6590749610956037e-05 6.7580691723762877e-05 0.0000000000000000e+00  -1.7281911788368345e-06 3.8057861869472971e-05 0.0000000000000000e+00  5.7943229780581305e-05 5.5823865708064043e-05 0.0000000000000000e+00  -8.5216931272536671e-06 7.7392587381707313e-07 0.0000000000000000e+00  -2.2738804541175148e-07 5.1171651173056089e-06 0.0000000000000000e+00  1.5000053955619352e+00 -4.8744480153710759e-07 0.0000000000000000e+00  -1.0114859377928247e-05 2.1333426892759372e-06 0.0000000000000000e+00  5.8175331521392130e-06 1.8545716202550287e-06 0.0000000000000000e+00  8.7916055103758799e-06 1.4766923651932158e-06 0.0000000000000000e+00  -6.0512593996724643e-06 4.5764391040186897e-07 0.0000000000000000e+00  -3.0625828580192128e-06 -2.4580060639023744e-06 0.0000000000000000e+00  2.0713450764704307e-06 2.7292112494284137e-06 0.0000000000000000e+00  -7.6084012138567602e-06 -9.4106911536372226e-07 0.0000000000000000e+00  -7.3254577595562416e-06 2.0375159252914099e-06 0.0000000000000000e+00  -1.3194286800938883e-05 -1.0430008762674111e-06 0.0000000000000000e+00  3.2768478374217770e-06 -7.6864982261497191e-06 0.0000000000000000e+00  -8.5074263610294135e-06 -4.1784104471863608e-06 0.0000000000000000e+00  -9.0769430019053671e-06 -3.8838621962702279e-06 0.0000000000000000e+00  1.0419529117188395e+00 1.8830748904752151e-05 0.0000000000000000e+00  1.0418708203778284e+00 -4.3088405747253807e-05 0.0000000000000000e+00  1.0413268605432060e+00 -5.1466762983771899e-04 0.0000000000000000e+00  1.0418144306487176e+00 -8.9595248140302629e-05 0.0000000000000000e+00  1.0418849490738029e+00 5.9098539651779707e-05 0.0000000000000000e+00  1.0431398416294171e+00 1.4568249894934012e-05 0.0000000000000000e+00  1.0257483000002430e+00 -3.7334166331286747e-03 0.0000000000000000e+00  1.0419603192794735e+00 2.0339306503635636e-05 0.0000000000000000e+00  -3.3969305065932042e-06 -1.3717528451521816e-06 0.0000000000000000e+00  -1.5555273478158206e-06 -1.3602880627682517e-06 0.0000000000000000e+00  1.0437101220611162e+00 -1.3548730121887627e-03 0.0000000000000000e+00  8.1211794636304517e-06 -8.1996440296338769e-06 0.0000000000000000e+00  2.9532740590267986e-06 3.0513320801234007e-06 0.0000000000000000e+00  -9.2763639289149822e-06 -1.1648153682458487e-06 0.0000000000000000e+00  1.0418763392700323e+00 8.6566868201697585e-05 0.0000000000000000e+00  -6.4904344139483770e-06 2.9955448349085430e-06 0.0000000000000000e+00  -9.8365187970656595e-06 1.8580659683139969e-06 0.0000000000000000e+00  1.2870641207311955e-06 -1.7659026515881004e-06 0.0000000000000000e+00  1.0418855115378747e+00 -1.9396383672732313e-04 0.0000000000000000e+00  -6.5921683328920333e-06 -4.0233838807997729e-07 0.0000000000000000e+00  -4.8457327284689456e-06 2.9336290802895058e-08 0.0000000000000000e+00  1.0105986920386722e-05 -1.3448765813399004e-06 0.0000000000000000e+00  -1.4398252644980362e-05 -3.6321527314224334e-06 0.0000000000000000e+00  -1.7868001555988214e-05 4.0911837127913652e-06 0.0000000000000000e+00  -2.3335027630766449e-05 3.2083089796890578e-06 0.0000000000000000e+00  1.5681601980312686e-06 -1.2637446332342047e-06 0.0000000000000000e+00  1.0417210906399104e+00 -5.4421820956522035e-05 0.0000000000000000e+00  -2.6170056254871152e-06 1.3608132992977603e-06 0.0000000000000000e+00  1.0419784579203224e+00 -2.2126466702158986e-05 0.0000000000000000e+00  1.0417105720016646e+00 -1.1114578507526595e-04 0.0000000000000000e+00  1.0419528557733337e+00 4.4932575689156566e-05 0.0000000000000000e+00  1.0418729062244232e+00 -1.6162056686337451e-04 0.0000000000000000e+00  1.0419316959398646e+00 1.7096221714881055e-04 0.0000000000000000e+00  1.0817480209155788e+00 -1.0951519410119827e-01 0.0000000000000000e+00  1.0417908501530746e+00 1.8676179323700808e-05 0.0000000000000000e+00  1.0420296860023635e+00 4.8891571585643503e-04 0.0000000000000000e+00  1.0417702197338612e+00 -2.8522313754765335e-05 0.0000000000000000e+00  1.0424316847738664e+00 -1.8625838103264319e-03 0.0000000000000000e+00  1.0410223114863570e+00 5.3733096888414612e-04 0.0000000000000000e+00  1.0272361183755572e+00 8.3644978093434783e-02 0.0000000000000000e+00  1.1250012686613622e+00 -8.9295143678921501e-06 0.0000000000000000e+00  1.1249949876710899e+00 1.0239519201709461e-05 0.0000000000000000e+00  1.0420729556625061e+00 -2.6643759384031244e-04 0.0000000000000000e+00  1.0432116784333905e+00 1.0690189900844797e-02 0.0000000000000000e+00  1.0391336235927811e+00 -1.2758853825257474e-03 0.0000000000000000e+00  1.0476993678922286e+00 -1.3529374059868723e-02 0.0000000000000000e+00  1.0421898945309322e+00 -5.8885951999532421e-04 0.0000000000000000e+00  1.0419649914730018e+00 1.3567724974542495e-04 0.0000000000000000e+00  1.0417316112687307e+00 1.4595085928203548e-05 0.0000000000000000e+00  1.0416597108411254e+00 -4.2172769323051230e-05 0.0000000000000000e+00  1.0412109804098659e+00 -7.6411060487603590e-04 0.0000000000000000e+00  1.0405453324190936e+00 3.8256424666844056e-04 0.0000000000000000e+00  1.0420374824993133e+00 1.3228655603139694e-05 0.0000000000000000e+00  1.0421945353317150e+00 -1.7640704854462449e-04 0.0000000000000000e+00  1.0416336944067983e+00 -3.0615342048055471e-04 0.0000000000000000e+00  1.0420543489039125e+00 1.9418962742548369e-04 0.0000000000000000e+00  1.0438536841022559e+00 1.4718816684431148e-03 0.0000000000000000e+00  1.0422121980464543e+00 -3.0318925022638440e-05 0.0000000000000000e+00  1.0418679865060048e+00 -1.2660907002610906e-04 0.0000000000000000e+00  1.0418022892785015e+00 -1.2556624870253597e-04 0.0000000000000000e+00  1.0421084128446798e+00 1.8724249330724505e-04 0.0000000000000000e+00  1.0411179717231391e+00 -2.3426672642018424e-04 0.0000000000000000e+00  1.0418192559833788e+00 -4.8024851573232347e-05 0.0000000000000000e+00  1.0767639472746051e+00 4.3528959065792405e-01 0.0000000000000000e+00  1.0417579679481870e+00 -5.9504194667978865e-05 0.0000000000000000e+00  8.8592439563335224e-01 -4.2662371505198866e-02 0.0000000000000000e+00  1.0416838332255831e+00 -1.3893926864647950e-04 0.0000000000000000e+00  1.0418411052674830e+00 -4.7281360039561888e-05 0.0000000000000000e+00  1.3100215421647841e+00 8.0368779208540991e-02 0.0000000000000000e+00  1.0419043234013838e+00 1.0787402832386897e-04 0.0000000000000000e+00  1.2269479985589922e+00 1.7053186289228797e-01 0.0000000000000000e+00  1.0518460497893818e+00 -4.4298519443551149e-01 0.0000000000000000e+00  6.1745215942648995e-06 -1.9569235445924175e-06 0.0000000000000000e+00  1.0399992766330610e+00 -5.5467782262283482e-04 0.0000000000000000e+00  2.2293967587354801e-06 -5.4353154293098390e-07 0.0000000000000000e+00  -1.0354960415712958e-05 2.4720726148685629e-07 0.0000000000000000e+00  1.0419065603612974e+00 -1.9644694477072214e-05 0.0000000000000000e+00  1.1942275613237489e-05 -1.0809431960527512e-06 0.0000000000000000e+00  1.0412182360315401e+00 -5.5358275220958612e-04 0.0000000000000000e+00  -4.0911487474967065e-06 2.3897967629004382e-06 0.0000000000000000e+00  5.3718450147209648e-06 -6.5746028482060677e-07 0.0000000000000000e+00  1.0416422903418878e+00 2.8914637824656471e-04 0.0000000000000000e+00  -6.3415461007647870e-06 -4.9736895788695348e-06 0.0000000000000000e+00  1.0286745652865543e+00 -3.6874379090098643e-02 0.0000000000000000e+00  1.3738935931346836e+00 -7.3339536697591107e-02 0.0000000000000000e+00  1.0417769036238012e+00 -1.4614237003887255e-04 0.0000000000000000e+00  1.3142004871219404e+00 -2.1255952990574112e-01 0.0000000000000000e+00  1.0384342306399728e+00 -6.6853672411012451e-03 0.0000000000000000e+00  1.3700198167674040e+00 1.4100549562726403e-01 0.0000000000000000e+00  1.0365023089373513e+00 3.0046240225605797e-03 0.0000000000000000e+00  1.0418942719650752e+00 7.6868152784667713e-05 0.0000000000000000e+00  1.0397320015342568e+00 -2.0150766129858207e-03 0.0000000000000000e+00  -3.7258545637930496e-06 3.8968930077874718e-06 0.0000000000000000e+00  1.0416526874728189e+00 -3.2276652588287495e-04 0.0000000000000000e+00  1.0418949629033563e+00 -1.1817769244324112e-04 0.0000000000000000e+00  1.0418283183100976e+00 -5.5232472770189644e-06 0.0000000000000000e+00  1.0417682732593092e+00 -7.2977701470825349e-06 0.0000000000000000e+00  1.0416792756702438e+00 -5.5680178169617458e-04 0.0000000000000000e+00  -1.0357549275898480e-05 -1.7102880426144466e-06 0.0000000000000000e+00  1.0419290639278664e+00 1.2946761537354533e-04 0.0000000000000000e+00  1.0419296169444796e+00 -2.5063922449997610e-04 0.0000000000000000e+00  1.2416765737144142e+00 -1.0008593077964782e-01 0.0000000000000000e+00  1.0417986173982792e+00 1.4777257062190008e-04 0.0000000000000000e+00  1.0417938145634640e+00 -7.4685197321304499e-05 0.0000000000000000e+00  -3.2085216067423694e-06 -1.8552183899129467e-06 0.0000000000000000e+00  -1.7158727386997254e-05 1.7692926086447094e-06 0.0000000000000000e+00  1.0418547475971067e+00 -3.9442592764392398e-04 0.0000000000000000e+00  1.0414454384982341e+00 5.3483883874219594e-06 0.0000000000000000e+00  1.0671900003633596e+00 -2.8267760556472784e-02 0.0000000000000000e+00  1.0418590279710256e+00 -6.5488109548742901e-05 0.0000000000000000e+00  -6.5970321610303649e-05 -2.1943244687362823e-05 0.0000000000000000e+00  6.5626932556590278e-01 4.2733980864361459e-05 0.0000000000000000e+00  1.0405451934686980e+00 -1.6087964883442277e-04 0.0000000000000000e+00  1.0444377369488900e+00 -4.8060360427375024e-03 0.0000000000000000e+00  1.0416664832861193e+00 2.9229799140764331e-03 0.0000000000000000e+00  -1.0962107890211516e-05 2.4940566540288665e-06 0.0000000000000000e+00  1.0415355590462940e+00 -3.5482781113119920e-04 0.0000000000000000e+00  1.0417410185841012e+00 -1.0663671068516472e-04 0.0000000000000000e+00  -7.5085262459646126e-06 -6.4482488902323255e-07 0.0000000000000000e+00  -1.7430499309657328e-05 2.0371763890256464e-06 0.0000000000000000e+00  -1.0625703730741501e-05 2.9201445217917706e-06 0.0000000000000000e+00  9.3664543777450290e-06 -2.3422685677417235e-06 0.0000000000000000e+00  -9.0223650938547889e-06 -1.1646958050555359e-06 0.0000000000000000e+00  -1.1428158952072512e-06 -7.7698810268359071e-07 0.0000000000000000e+00  -4.7227443250602455e-06 -2.8818615185451790e-06 0.0000000000000000e+00  3.4678231798631744e-06 -1.7668766023742865e-06 0.0000000000000000e+00  5.5895026465431252e-06 5.7580961228626515e-07 0.0000000000000000e+00  -9.3033980144877575e-06 1.5825466710537829e-06 0.0000000000000000e+00  2.7993319802711861e-06 -3.0230607056754169e-06 0.0000000000000000e+00  -5.0575946292716166e-05 6.4840105020692740e-07 0.0000000000000000e+00  -4.4934429198607028e-06 -1.2373944825158811e-06 0.0000000000000000e+00  -3.4595173562137661e-06 -1.3206637577353036e-06 0.0000000000000000e+00  -2.3599905474215479e-06 5.3142253007210450e-06 0.0000000000000000e+00  -9.7484325617565778e-06 -5.4822411459244368e-06 0.0000000000000000e+00  -5.9422436984122445e-06 1.6993275722027367e-06 0.0000000000000000e+00  -1.7966759924732227e-06 -7.5568477650780045e-07 0.0000000000000000e+00  3.5073194884118501e-06 8.1394017823518728e-07 0.0000000000000000e+00  1.0387500819052369e+00 2.6012060279840552e-03 0.0000000000000000e+00  1.0396090517742433e+00 -1.8360887514459279e-04 0.0000000000000000e+00  1.0407744016424822e+00 1.2103333849771735e-03 0.0000000000000000e+00  1.0410775299131665e+00 1.3923467191098967e-03 0.0000000000000000e+00  1.0418929344035630e+00 1.5209247632548947e-05 0.0000000000000000e+00  1.0419486196871082e+00 1.0326495838102328e-04 0.0000000000000000e+00  1.0417042553439895e+00 -3.8352061214777869e-04 0.0000000000000000e+00  1.0380974944317205e+00 2.7891939941591544e-03 0.0000000000000000e+00  9.9509090975176395e-01 1.2851085331530789e-02 0.0000000000000000e+00  1.0845130431605445e+00 3.8363611483442021e-02 0.0000000000000000e+00  9.0289121016217344e-01 2.7079192806321417e-01 0.0000000000000000e+00  1.0424662911007376e+00 1.8658662715060977e-04 0.0000000000000000e+00  1.0421183409700501e+00 9.9080142441599362e-05 0.0000000000000000e+00  1.0419963032263431e+00 1.1305418633875549e-04 0.0000000000000000e+00  1.0418502564950760e+00 2.5845951855274187e-05 0.0000000000000000e+00  1.0412494328934845e+00 -4.2925308494808756e-04 0.0000000000000000e+00  1.0405996980163390e+00 8.3827312199760099e-06 0.0000000000000000e+00  1.0420497930880614e+00 4.4068232600645129e-04 0.0000000000000000e+00  1.0417647553058595e+00 1.0097163643277998e-04 0.0000000000000000e+00  1.0420373096974427e+00 -1.9941244223135714e-05 0.0000000000000000e+00  1.0416406871516448e+00 6.8795301030004667e-04 0.0000000000000000e+00  9.8783185478620972e-01 -3.0446898779956671e-01 0.0000000000000000e+00  1.0418817939517666e+00 -2.4919880597220881e-05 0.0000000000000000e+00  1.0419254801024893e+00 1.1392774736843311e-04 0.0000000000000000e+00  1.0419276510060900e+00 4.5914499472714152e-05 0.0000000000000000e+00  1.0412394104386893e+00 5.0794961915937638e-04 0.0000000000000000e+00  1.0419330269364147e+00 -2.9929858858085702e-05 0.0000000000000000e+00  1.0419575715097957e+00 -5.4704418414499252e-05 0.0000000000000000e+00  1.0411656614230436e+00 1.7737323146306712e-04 0.0000000000000000e+00  1.0418495357009578e+00 -5.4740411277745958e-05 0.0000000000000000e+00  1.0407562586496721e+00 -6.2607033602240939e-04 0.0000000000000000e+00  1.0417705997649429e+00 -1.0715240987818097e-03 0.0000000000000000e+00  6.5626405398243237e-01 -5.4217253447960061e-05 0.0000000000000000e+00  1.0411082087711148e+00 -1.0273895103791251e-03 0.0000000000000000e+00  1.0408651723300142e+00 -5.9301776682623489e-05 0.0000000000000000e+00  1.0320351227325848e+00 2.7521163164638009e-02 0.0000000000000000e+00  1.0428792196991108e+00 -2.6948972027800275e-04 0.0000000000000000e+00  1.0417464735418516e+00 -1.2272862422854552e-04 0.0000000000000000e+00  1.0417617817729445e+00 -4.5592730343600477e-05 0.0000000000000000e+00  1.0421450032006472e+00 1.1688170975720296e-04 0.0000000000000000e+00  1.0418598544283431e+00 5.7870221082068844e-05 0.0000000000000000e+00  1.0418144823213353e+00 1.0202890841781842e-04 0.0000000000000000e+00  1.0538644650867106e+00 1.3998770001058701e-02 0.0000000000000000e+00  1.0414961532784590e+00 2.7508084271126976e-03 0.0000000000000000e+00  1.0400009850127399e+00 4.8070313025428751e-05 0.0000000000000000e+00  1.0418111507064269e+00 -6.3082490727585673e-05 0.0000000000000000e+00  1.0423475692995323e+00 -9.6434101915450325e-04 0.0000000000000000e+00  1.0410074606867972e+00 -1.7657410949297170e-03 0.0000000000000000e+00  1.0431812735982293e+00 4.8453792249913269e-04 0.0000000000000000e+00  1.0473616849895846e+00 -4.8460899829592128e-03 0.0000000000000000e+00  1.0411466312928637e+00 -8.3070747441731866e-04 0.0000000000000000e+00  1.0354681772261305e+00 -1.3312323547605394e-03 0.0000000000000000e+00  9.0180282354333974e-01 2.5413517752317366e-01 0.0000000000000000e+00  1.0376298634707961e+00 -1.1912147476469135e-03 0.0000000000000000e+00  1.0398511078804893e+00 9.6533792402822398e-04 0.0000000000000000e+00  1.0419525189509340e+00 1.3920714947753845e-05 0.0000000000000000e+00  1.0418514204175162e+00 -1.0956859949281389e-04 0.0000000000000000e+00  1.1143828109741978e+00 1.9277671981749786e-01 0.0000000000000000e+00  1.0420340970124433e+00 -9.8714935862621585e-04 0.0000000000000000e+00  1.0417865634070602e+00 3.9554285268801473e-04 0.0000000000000000e+00  1.0417760148593884e+00 3.9854878885665635e-05 0.0000000000000000e+00  1.0425658932969024e+00 9.1554284987653393e-04 0.0000000000000000e+00  1.1690695930303483e+00 4.6942621268690102e-02 0.0000000000000000e+00  1.0419028488015234e+00 -1.1562776795849313e-04 0.0000000000000000e+00  1.0417925222217239e+00 2.1305695353374293e-05 0.0000000000000000e+00  1.0419833986791291e+00 7.9962177602496353e-05 0.0000000000000000e+00  1.0417173741642507e+00 -9.2398866967904740e-05 0.0000000000000000e+00  1.0343668206566579e+00 -2.6005646168771874e-03 0.0000000000000000e+00  1.0365799753522591e+00 -5.0492166011827067e-04 0.0000000000000000e+00  1.0422555811351508e+00 -1.0276240311444581e-03 0.0000000000000000e+00  1.0419159579212576e+00 3.2763424982453100e-04 0.0000000000000000e+00  1.0409586597375848e+00 -1.7850373536669034e-05 0.0000000000000000e+00  1.0418973177473903e+00 1.2144527193013328e-04 0.0000000000000000e+00  1.0387033380250481e+00 8.1668865751447666e-04 0.0000000000000000e+00  1.0418218033078261e+00 -1.0511004125460059e-04 0.0000000000000000e+00  1.0419020960155529e+00 -1.9987748517130000e-04 0.0000000000000000e+00  1.2781795500447006e+00 3.9141753526075601e-02 0.0000000000000000e+00  1.0419506339402096e+00 -8.4055926553979436e-05 0.0000000000000000e+00  1.0420292811550707e+00 -1.0706004906148061e-04 0.0000000000000000e+00  1.0417999827579321e+00 1.0983654762065032e-04 0.0000000000000000e+00  1.0345236167449665e+00 2.3338067560953538e-03 0.0000000000000000e+00  1.0418160589164522e+00 1.5052320297708995e-04 0.0000000000000000e+00  1.0341266530150537e+00 -1.4874512823974657e-02 0.0000000000000000e+00  1.0406027598004730e+00 -1.6255298920163060e-04 0.0000000000000000e+00  6.6295401061518477e-01 -4.1928474163451851e-01 0.0000000000000000e+00  1.1516533916699365e+00 -5.6241905025906348e-02 0.0000000000000000e+00  1.0411738866442408e+00 6.1191669399247037e-04 0.0000000000000000e+00  1.0330227832733179e+00 -1.5421357296194946e-03 0.0000000000000000e+00  1.3230865915981069e+00 3.5734389439644637e-01 0.0000000000000000e+00  1.1260693044633787e+00 1.7439200491729337e-01 0.0000000000000000e+00  1.0418216186948166e+00 -4.4307901602620723e-03 0.0000000000000000e+00  1.4623873591981724e+00 -1.3428432959157774e-01 0.0000000000000000e+00  1.2987003317358818e+00 -4.1166453268225495e-01 0.0000000000000000e+00  1.1092820794214795e+00 -1.9474509992496578e-01 0.0000000000000000e+00  1.0391195660349366e+00 -1.7691051569661931e-03 0.0000000000000000e+00  1.0409406961962089e+00 -9.7681136049532712e-04 0.0000000000000000e+00  1.0379709449159533e+00 -2.8509352944749929e-04 0.0000000000000000e+00  1.0430651104013355e+00 1.3808539520455004e-03 0.0000000000000000e+00  1.0418978803571042e+00 -3.1629030672279017e-04 0.0000000000000000e+00  1.0349237768389978e+00 -2.1627944903598903e-03 0.0000000000000000e+00  1.4062480266376030e+00 -1.9393399294166764e-05 0.0000000000000000e+00  1.0432890139196878e+00 -3.3628257823169118e-04 0.0000000000000000e+00  1.0430159183603684e+00 4.8405405438661786e-03 0.0000000000000000e+00  1.4062467348598835e+00 2.1642287484754945e-05 0.0000000000000000e+00  1.0422789364827012e+00 -1.7393527663900944e-05 0.0000000000000000e+00  1.0417217837233694e+00 -1.0122941875542778e-04 0.0000000000000000e+00  1.2477251265901013e+00 -1.4833049738669567e-02 0.0000000000000000e+00  1.0418432703508036e+00 1.0835466545330822e-04 0.0000000000000000e+00  8.4551052612098543e-01 2.5530735738954469e-01 0.0000000000000000e+00  1.0426340285693299e+00 -2.5171055598160780e-04 0.0000000000000000e+00  1.0426346091209142e+00 -9.2788741402988022e-04 0.0000000000000000e+00  1.0369986370957558e+00 1.1896028656676516e-03 0.0000000000000000e+00  1.0341466437307620e+00 -4.9302394396182763e-04 0.0000000000000000e+00  1.0417976008280707e+00 -2.9714449395460278e-05 0.0000000000000000e+00  1.0338631312332829e+00 5.8026019253041162e-04 0.0000000000000000e+00  1.0393466758380021