<?xml version="1.0"?>
<VTKFile type="UnstructuredGrid"  version="0.1"  >
<UnstructuredGrid>
<Piece  NumberOfPoints="2446" NumberOfCells="4585">
<Points>
<DataArray  type="Float64"  NumberOfComponents="3"  format="ascii">0 0.41 0  0 0 0  2.2 0 0  2.2 0.41 0  0.2404508497187474 0.2293892626146237 0  0.25 0.2 0  0.2404508497187474 0.1706107373853764 0  0.2154508497187474 0.1524471741852423 0  0.1845491502812526 0.1524471741852423 0  0.1595491502812526 0.1706107373853764 0  0.15 0.2 0  0.1595491502812526 0.2293892626146237 0  0.1845491502812527 0.2475528258147577 0  0.2154508497187474 0.2475528258147577 0  1.1 0 0  1.1 0.41 0  0 0.205 0  0.55 0 0  0.55 0.41 0  0.275 0 0  0.275 0.41 0  1.65 0.41 0  1.65 0 0  0.8250000000000001 0.41 0  0.8250000000000001 0 0  1.375 0 0  1.375 0.41 0  1.925 0 0  1.925 0.41 0  1.5125 0.205 0  1.7875 0.205 0  0.6875 0.205 0  0.9625000000000001 0.205 0  1.2375 0.205 0  2.2 0.205 0  0.4687002074688797 0.2068568464730291 0  1.99375 0.2152743902439024 0  2.0625 0 0  2.0625 0.41 0  2.2 0.3075 0  0.4125 0 0  0.4125 0.41 0  1.7875 0.41 0  1.375 0.1486128048780488 0  1.5125 0 0  1.7875 0 0  1.5125 0.41 0  0.8250000000000001 0.2613871951219511 0  0.9625000000000001 0.41 0  0.9625000000000001 0 0  0.6875 0.41 0  0.6875 0 0  0.1375 0 0  0.1375 0.41 0  1.2375 0 0  1.1 0.1486128048780487 0  1.2375 0.41 0  1.65 0.1486128048780487 0  1.126715909090909 0.2793064024390244 0  1.676715909090909 0.2793064024390244 0  0.8517159090909092 0.1306935975609756 0  1.348284090909091 0.2793064024390244 0  0.34375 0.3032389320646208 0  1.894702181800738 0.1282910975492754 0  2.092797818199262 0.1282910975492754 0  1.85625 0.3075 0  0.61875 0.3075 0  0.61875 0.1025 0  0.3648540804333487 0.1240075933101478 0  0 0.3075 0  0 0.1025 0  2.099172119769978 0.25625 0  0.48125 0.09238439620688085 0  0.5781001037344399 0.2059284232365146 0  0.48125 0.3196743479159776 0  0.7265881057911006 0.3055240343720796 0  1.99375 0.08395950269330846 0  1.459960956013612 0.3075 0  1.569025960719943 0.2986889805672169 0  0.75625 0.08213100772579164 0  1.03125 0.3278689922742084 0  0.923871252904788 0.3078247185783941 0  1.959375 0.3126371951219512 0  1.749222215368287 0.1025 0  1.275777784631713 0.1025 0  2.2 0.1025 0  1.225938124459196 0.3075 0  1.550777784631713 0.1025 0  1.000777784631713 0.1025 0  1.44375 0.07430640243902442 0  1.16875 0.07430640243902437 0  1.899250267340833 0.2229966846119207 0  0.1020898364287272 0.3140258291809757 0  1.766482954545455 0.2934032012195123 0  0.3405058858996321 0.2119987970531874 0  0.7710785630958338 0.1710968191298857 0  1.046078563095834 0.2389031808701144 0  0.2 0.3400647632937836 0  1.421109702350723 0.2261157654379721 0  0.2800464974185557 0.08982544815605742 0  0.098916018031319 0.09171660955420841 0  2.13125 0 0  2.118919042110979 0.3422084711244843 0  1.30625 0.41 0  0.89375 0 0  1.597888256393107 0.2173787389261347 0  0.20625 0 0  1.829299675393195 0.07400700849299596 0  1.71875 0.41 0  1.16875 0.41 0  2.038220665644273 0.332420740103091 0  0.34375 0 0  0.417496017710808 0.2696595573092803 0  0.2 0.07687845740457822 0  0.9295982307099278 0.1343158415898188 0  0.07390688010811153 0.1697064032433452 0  0.5238366813727013 0.2578302467013575 0  0.05452951551825875 0.25625 0  0.5229630068078351 0.1548816096928243 0  1.452769549894695 0.1548122580621249 0  1.369219062229598 0.07430640243902442 0  1.30625 0 0  0.8504409521244898 0.3356935975609756 0  0.8821881244591965 0.205 0  1.720943423819132 0.1714577452753128 0  1.157188124459196 0.205 0  1.094219062229598 0.07430640243902437 0  1.03125 0 0  1.304056576180868 0.1714577452753128 0  1.67579304192913 0.07430640243902437 0  0.2751941921308361 0.3346083473122598 0  1.209670467133757 0.1362100266964769 0  1.025335513626278 0.1700681449722324 0  0.7562500000000001 0.41 0  1.58125 0 0  0.7567170593862014 0.2409196493502535 0  0.6926714215682891 0.1272249611432207 0  0.4139715849905988 0.3397932387114203 0  0.9840787304190477 0.2717749043358119 0  0.06875000000000001 0.41 0  0 0.35875 0  0.9281250000000001 0.06276726142697993 0  0.5507396469029935 0.3219409231578227 0  0.5504468037989405 0.09136885600634273 0  1.58125 0.41 0  1.631724228912893 0.3381867502687533 0  1.825608881788174 0.14499488549201 0  1.85625 0 0  1.44375 0 0  1.44375 0.41 0  1.85625 0.41 0  2.13125 0.41 0  0.7562500000000001 0 0  0.89375 0.41 0  0.4812500000000001 0 0  0.34375 0.41 0  0.4812500000000001 0.41 0  0.20625 0.41 0  0.06875000000000001 0 0  1.16875 0 0  0.61875 0 0  0.61875 0.41 0  1.03125 0.41 0  1.71875 0 0  1.99375 0 0  1.99375 0.41 0  1.340625 0.3489494290853124 0  1.134375 0.3489494290853123 0  1.700180620188976 0.3438659752031281 0  2.135782184673599 0.07126652247502523 0  1.668441847249787 0.2129203728327609 0  1.295782514339747 0.2378437748815763 0  0.8233075729931248 0.06842334294821524 0  1.409375 0.3520314716057996 0  0.403505597322782 0.182067236678212 0  0.378125 0.05794951541303489 0  0.3043468223249023 0.1518321115979534 0  2.129248544730567 0.1906135162504124 0  2.060771381434487 0.1989445750470348 0  2.013252586573865 0.1496169464686054 0  1.942766402200229 0.1734448904596831 0  1.895522487186454 0.06076163953489683 0  2.069553871656643 0.06605731020975725 0  1.274680914880868 0.3520219391081363 0  1.614713220494657 0.09473434380863296 0  0.7899021319497519 0.3149123934144827 0  0.69518737419149 0.0634051089053758 0  0.2971740475496061 0.2592172353407536 0  1.72990325744076 0.2380068107952482 0  1.356580098625191 0.2120393231351682 0  2.034370752044885 0.2668681600792073 0  1.51768709249349 0.3426260931494756 0  1.561883724969884 0.1650446847858835 0  1.197344062229598 0.2523725417393646 0  1.804085235518364 0.3468178408964637 0  1.817887819205233 0.2589243285818559 0  1.905897727272727 0.3485060975609756 0  0.6719798073392919 0.2688965171178177 0  0 0.05125 0  0.653125 0.35875 0  0.6396896119294488 0.1627615407790282 0  0.4274150154087412 0.1242548552168279 0  1.192836486056382 0.3562350748565544 0  0.8279124365364005 0.183856489168822 0  1.097485222388854 0.2083571153401724 0  1.28257088594801 0.2944411014911587 0  1.474860187679412 0.2504218616229368 0  1.406767003493824 0.2829282258560709 0  0.446875 0.04619219810344041 0  0.515625 0.04585361801037557 0  0.592043440706648 0.05125 0  1.845656689180403 0.1998310418452388 0  2.144958525570388 0.2909790873294231 0  0.6171090763650112 0.2492366900333857 0  2.2 0.15375 0  0.5145586920831158 0.3648371739579888 0  1.57794966442982 0.3540357145964566 0  0.721875 0.3633107922168974 0  0.0496154796471391 0.333125 0  0.5843750000000001 0.3662560860076676 0  0.5810878747760798 0.1474002776121195 0  1.508991196088596 0.1421783375065625 0  0.8840670607017558 0.2640994375393898 0  0.09776612425612034 0.2204896805326566 0  1.50436820029908 0.06143401634903343 0  1.223857000523521 0.0823554862453532 0  1.153316824384777 0.1289850171317837 0  2.148922302309752 0.1258841779285271 0  0.309375 0.04312325590431198 0  1.621993280276081 0.2841214267927899 0  1.550118654119087 0.2461998729100966 0  1.327182649291491 0.1216967252533594 0  1.051977450479407 0.1221382572915816 0  1.753125 0.04556020050186112 0  1.271875 0.04556020050186116 0  0.9816084133102366 0.05126138213476004 0  1.039051841454368 0.0572224914831029 0  0.9719230514536006 0.3480477870845102 0  1.94956388244759 0.1180512551534177 0  1.949997712993411 0.04965831614304109 0  1.771961817615021 0.1530278789497521 0  1.909246823951428 0.2812757146784527 0  0.2459536687882397 0.04668633953831142 0  1.948575539857022 0.2445328248721197 0  1.697271520964565 0.1233917627620729 0  0.7964897648514618 0.1211426571931604 0  1.065625 0.3689344961371042 0  1.085849084308977 0.3170853572226867 0  0.4702981435440001 0.260434880697798 0  1.577403511714593 0.05463601888079143 0  0.05622663515370135 0.05493816910862376 0  0.3267207591099919 0.3566194660323104 0  0.9003051618565143 0.3564049499960621 0  1.751571320346033 0.3651102912045228 0  0.1583785085108421 0.2994699345738728 0  0.1455283439499995 0.3542795598723423 0  2.2 0.35875 0  0.2347662494194072 0.298325008655211 0  0.1527284455616188 0.1065771775690181 0  0.1382139529076665 0.05427454456341477 0  0.8749341636311069 0.05110114999892954 0  0.643661668713109 0.05693499781019222 0  1.466879772203159 0.3611261772912453 0  1.990280163552011 0.3564754268533217 0  1.17471064520912 0.2990917256188288 0  0.5202693090594349 0.206382495511728 0  0 0.25625 0  2.2 0.25625 0  2.2 0.05125 0  0 0.15375 0  1.853978576207987 0.35875 0  0.9787513713939683 0.1487523696999336 0  0.240625 0.3722153812029779 0  1.515638456102889 0.2882700110184686 0  0.09048297387599738 0.3637717362208066 0  2.150453692751374 0.2387066338105111 0  1.323782677156475 0.04897634338873398 0  0.8074131292871642 0.3624701995505916 0  1.409375 0.03715320121951221 0  1.406484531114799 0.1087852750766809 0  1.134375 0.03715320121951218 0  1.627401732573545 0.04552157221025036 0  0.1170173172005315 0.1427610859166811 0  2.045405893604797 0.1105340662939892 0  1.255408269734577 0.1577307500159216 0  2.028125 0.03707597992059326 0  0.4743610090857199 0.1421513964721819 0  0.9354010469015898 0.250631300585664 0  0.04420832937638274 0.128125 0  0.8922386349349938 0.0992956419364831 0  0.1197849154434487 0.2663398672460083 0  1.248258025468107 0.2565907092181813 0  0.3746885856929528 0.370723531618974 0  1.203125 0.0366132337404304 0  0.5724622277005015 0.2751253816079333 0  0.3365425205162783 0.08395777655057959 0  2.072662025974815 0.2975086504196739 0  0.4581080832182547 0.3648371739579888 0  0.3874522734668214 0.2295447548840689 0  0.7827853612484443 0.04106550386289586 0  1.887722846421017 0.1760882698830035 0  1.472640588990488 0.1118278026240017 0  1.865937103925594 0.2604137786483804 0  1.463913572748262 0.2030442564990043 0  1.376426316059077 0.3186741374914345 0  0.6641993820150034 0.3141688596240831 0  0.2943117490824315 0.2130987422685822 0  0.3478153998082709 0.1666571081082676 0  0.3427990510599805 0.2575950027870776 0  0.7997118993855807 0.2216171933356366 0  
[...]
<PointData  Vectors="f_31"> 
<DataArray  type="Float64"  Name="f_31"  NumberOfComponents="3" format="ascii">2.2556892200067209e-06 4.7823579981047827e-08 0.0000000000000000e+00  -2.3109763168723860e-06 -7.0070229193874726e-09 0.0000000000000000e+00  3.6906584685892484e-06 -2.1100880246460609e-09 0.0000000000000000e+00  -1.6084061797716755e-05 -1.2537725806733354e-08 0.0000000000000000e+00  -3.2725206888259707e-06 -1.8033705136529777e-06 0.0000000000000000e+00  5.2916180580498792e-07 -1.6331226445182104e-05 0.0000000000000000e+00  3.6392118946796524e-06 -7.3173168879237743e-06 0.0000000000000000e+00  -7.9287476111060884e-06 4.2473815076308610e-06 0.0000000000000000e+00  -2.3397545992581394e-06 5.8337921804614923e-06 0.0000000000000000e+00  1.0657885811449334e-05 -1.3692351675599757e-06 0.0000000000000000e+00  -3.0761810518197588e-07 -4.3359540491421424e-06 0.0000000000000000e+00  -1.7047826182442288e-05 -2.5962271346054695e-06 0.0000000000000000e+00  5.8977058453279070e-06 8.8772134174528621e-06 0.0000000000000000e+00  -1.0888000069547959e-05 -3.2898252009202998e-07 0.0000000000000000e+00  -2.3733530196374236e-06 9.7892491729241560e-09 0.0000000000000000e+00  1.5942065688113034e-07 -1.0811321982812391e-08 0.0000000000000000e+00  1.5000043870032631e+00 -2.1270669153524867e-06 0.0000000000000000e+00  -5.2519635704836715e-07 -3.2891236771816629e-06 0.0000000000000000e+00  9.0210100922120245e-06 5.2691439711350783e-07 0.0000000000000000e+00  3.9636077448828503e-06 3.5672687640989871e-07 0.0000000000000000e+00  -4.0291195683067377e-06 6.8268798694666910e-08 0.0000000000000000e+00  4.7513486027986619e-07 2.4797831568932324e-09 0.0000000000000000e+00  5.1637699475668081e-07 -1.0024256779888362e-08 0.0000000000000000e+00  -4.8827656906479623e-06 -1.4032220340972892e-07 0.0000000000000000e+00  -9.9390087238081622e-06 2.6080069613479480e-07 0.0000000000000000e+00  -3.6616563977192234e-06 2.1600380222242889e-09 0.0000000000000000e+00  -6.3471919718338952e-07 6.3678794749339269e-09 0.0000000000000000e+00  -2.7371300720669929e-06 1.0734503855413483e-08 0.0000000000000000e+00  -2.0034423470137555e-06 -2.5908763457681135e-09 0.0000000000000000e+00  1.1498011270862307e+00 2.5435005718727923e-05 0.0000000000000000e+00  1.1499321073070723e+00 3.0538152183951508e-05 0.0000000000000000e+00  1.1112731777372498e+00 7.0640584965032685e-02 0.0000000000000000e+00  1.1526198403014543e+00 -6.2005724467116561e-03 0.0000000000000000e+00  1.1494779891003613e+00 -3.1265657303957198e-04 0.0000000000000000e+00  1.1498397049947182e+00 -5.6970243479466059e-05 0.0000000000000000e+00  -1.6635395890919694e-01 -2.4879552271235633e-01 0.0000000000000000e+00  1.1498532137331288e+00 -4.2885073129449430e-05 0.0000000000000000e+00  3.8745780800515710e-07 2.3508348450950325e-09 0.0000000000000000e+00  -7.8610434975031701e-07 2.6218522675396455e-09 0.0000000000000000e+00  1.1462606386923757e+00 3.4478241565338151e-05 0.0000000000000000e+00  -3.5984362873902367e-06 5.1367453262078981e-07 0.0000000000000000e+00  3.5182700764147668e-06 -3.3589177076960571e-07 0.0000000000000000e+00  -5.6837749050084123e-06 -8.6346658492626887e-09 0.0000000000000000e+00  1.1496817842151066e+00 4.4844616335374492e-06 0.0000000000000000e+00  4.0393964340601463e-07 -5.6692208375986380e-09 0.0000000000000000e+00  -3.9663335381770163e-06 1.6996542852480285e-08 0.0000000000000000e+00  1.1630816606993806e-06 -4.5651626346798644e-09 0.0000000000000000e+00  1.2253029751245477e+00 4.0050393382125252e-02 0.0000000000000000e+00  -1.3497125757545407e-06 2.6423139207842545e-08 0.0000000000000000e+00  2.5871808145876669e-06 1.4333557116427238e-08 0.0000000000000000e+00  -6.4173150101810020e-07 2.6623414879433551e-07 0.0000000000000000e+00  -8.0717148776597792e-08 7.0997814594299480e-07 0.0000000000000000e+00  -3.7076300801838728e-06 6.3873385645279619e-07 0.0000000000000000e+00  -5.6890361186095707e-06 -5.2843191223840889e-07 0.0000000000000000e+00  3.8252722034895237e-07 -5.3870901748482983e-10 0.0000000000000000e+00  1.1488758097387111e+00 -1.3003866922005247e-03 0.0000000000000000e+00  -1.4361048066362543e-06 -5.2809280103947979e-09 0.0000000000000000e+00  1.1499747347119689e+00 5.7975300064685115e-05 0.0000000000000000e+00  1.1501423658116607e+00 -6.7926498424591812e-04 0.0000000000000000e+00  1.1495499621511780e+00 7.1434592713495805e-05 0.0000000000000000e+00  1.1474220947994278e+00 -4.1685009632703295e-02 0.0000000000000000e+00  1.1495908726126520e+00 -5.0125791665733455e-05 0.0000000000000000e+00  2.0480226352732567e+00 -7.1040684076807512e-02 0.0000000000000000e+00  1.1495429972151954e+00 -6.9539573789462666e-05 0.0000000000000000e+00  1.1496854380635986e+00 -1.3093641328503123e-04 0.0000000000000000e+00  1.1460396222198628e+00 6.3265703224710910e-05 0.0000000000000000e+00  1.3068367734344661e+00 -1.8339733272033962e-02 0.0000000000000000e+00  1.3483802168457204e+00 1.1145525305250084e-01 0.0000000000000000e+00  1.5187338661220566e+00 1.5222452160415939e-01 0.0000000000000000e+00  1.1249990106197705e+00 -8.3298640206589569e-07 0.0000000000000000e+00  1.1249902299718519e+00 -4.9689057140313692e-07 0.0000000000000000e+00  1.1497297514996354e+00 -6.1311472080898200e-05 0.0000000000000000e+00  1.6574702743594796e+00 3.2849768891549330e-01 0.0000000000000000e+00  6.4728429315019764e-01 -3.4158548645594630e-02 0.0000000000000000e+00  1.5229491708697769e+00 -3.2096148547913728e-01 0.0000000000000000e+00  1.2229401109741906e+00 7.9830967203047082e-02 0.0000000000000000e+00  1.1339442899183583e+00 -3.2490251422951708e-05 0.0000000000000000e+00  1.1467486362920152e+00 -3.6997541178880260e-06 0.0000000000000000e+00  1.1481539690102009e+00 4.1197272559410262e-05 0.0000000000000000e+00  9.9031477113576882e-01 -1.4794439294817532e-01 0.0000000000000000e+00  1.1324145154395819e+00 -4.4704008381915697e-04 0.0000000000000000e+00  1.1497955750793702e+00 4.6925853002556580e-03 0.0000000000000000e+00  1.1447156968811083e+00 -4.8034673294807671e-05 0.0000000000000000e+00  1.1461203954082080e+00 -2.3573717086756055e-04 0.0000000000000000e+00  1.1466430365893014e+00 -1.1846008357728508e-04 0.0000000000000000e+00  1.1462249511409439e+00 -3.2909800335901890e-04 0.0000000000000000e+00  1.1468801859387141e+00 -1.4563583309594295e-04 0.0000000000000000e+00  1.1465997221083966e+00 1.3692247049657550e-04 0.0000000000000000e+00  1.1424197283001607e+00 -3.0753157545390128e-03 0.0000000000000000e+00  1.1171007831068949e+00 1.4348682952211484e-05 0.0000000000000000e+00  1.1164430391771398e+00 -1.1271017766236713e-04 0.0000000000000000e+00  1.1498158645534757e+00 -1.4456110633019578e-05 0.0000000000000000e+00  1.1887103300969821e+00 2.5876533588553768e-01 0.0000000000000000e+00  1.1487618401968902e+00 1.2726981065194000e-04 0.0000000000000000e+00  -5.1383376526274860e-01 1.4431787956715914e-01 0.0000000000000000e+00  1.2148520955541879e+00 -5.2609437722682610e-02 0.0000000000000000e+00  1.1509168560643830e+00 -1.9541594583094035e-03 0.0000000000000000e+00  1.4069981014079793e+00 2.3580701773384175e-01 0.0000000000000000e+00  1.1495998167302608e+00 -2.4489260085852810e-05 0.0000000000000000e+00  1.8742634692302329e+00 -1.0685769996515138e-01 0.0000000000000000e+00  1.1396859217550595e+00 -2.4712400049308161e-01 0.0000000000000000e+00  -5.1569297650269365e-07 7.1000140639277175e-09 0.0000000000000000e+00  1.0973220528827525e+00 1.4275660931323470e-04 0.0000000000000000e+00  -1.6136387314453658e-06 8.7690703885923008e-09 0.0000000000000000e+00  -7.0800965483018444e-06 -5.1676650858091407e-08 0.0000000000000000e+00  1.1498947467498601e+00 1.6254222808612347e-05 0.0000000000000000e+00  2.3196412060008889e-06 -5.2548682430137511e-07 0.0000000000000000e+00  1.1157709811628800e+00 -9.0797906329780287e-05 0.0000000000000000e+00  -2.2620176581311758e-06 1.6466881554964601e-10 0.0000000000000000e+00  -1.9080210303792027e-06 5.9677814135647040e-09 0.0000000000000000e+00  1.1239501238583636e+00 -2.1014925202268699e-05 0.0000000000000000e+00  -1.5288934167753711e-06 2.1592431055699956e-07 0.0000000000000000e+00  1.7088040194109129e+00 -4.0443141708962571e-01 0.0000000000000000e+00  1.5205669859103415e+00 -2.7994430164979500e-01 0.0000000000000000e+00  1.1449886477189515e+00 -1.2452775077564534e-02 0.0000000000000000e+00  1.3352583693196249e+00 -1.0195399763803902e-01 0.0000000000000000e+00  1.4936261543025922e+00 -3.9003584688453408e-01 0.0000000000000000e+00  1.3737837074364319e+00 1.2997839505228481e-01 0.0000000000000000e+00  1.2468219668720109e+00 3.1096647745570255e-01 0.0000000000000000e+00  1.1496373027735411e+00 2.7530275904941423e-05 0.0000000000000000e+00  1.1161121930137958e+00 -1.5208747344929078e-04 0.0000000000000000e+00  -5.9845625591536277e-07 1.6042911584574517e-09 0.0000000000000000e+00  1.0973549135463005e+00 3.1762759452037707e-02 0.0000000000000000e+00  1.1635656498681046e+00 -1.6790384815015980e-02 0.0000000000000000e+00  1.1498640872067583e+00 8.2722026140590518e-05 0.0000000000000000e+00  1.1494769423338795e+00 -7.3557890158786586e-04 0.0000000000000000e+00  1.1158425964215801e+00 -3.1362101577265416e-04 0.0000000000000000e+00  -2.5876179766411739e-06 9.2246458503137615e-09 0.0000000000000000e+00  1.1495945110734933e+00 -1.1371643236118145e-04 0.0000000000000000e+00  1.1163848420074851e+00 3.9293147404823717e-05 0.0000000000000000e+00  1.6788807158653087e+00 9.3604770155317180e-02 0.0000000000000000e+00  1.1493835635487186e+00 -2.9265842855951481e-04 0.0000000000000000e+00  1.1490530361701261e+00 -3.4504995466648116e-03 0.0000000000000000e+00  -7.6746415563399030e-06 -1.6403400165570043e-06 0.0000000000000000e+00  -1.2754668337531853e-05 -1.5663559596556263e-09 0.0000000000000000e+00  1.3487276304027849e+00 -1.8119755474896124e-02 0.0000000000000000e+00  1.3441901493666815e+00 -2.3917175536615060e-02 0.0000000000000000e+00  1.5684992266932527e+00 -2.2895104959866541e-01 0.0000000000000000e+00  1.1530310891780218e+00 -1.4327508117607289e-03 0.0000000000000000e+00  -3.0018570324475570e-06 -2.7449503578538247e-07 0.0000000000000000e+00  6.5625066671848942e-01 -2.2150251993404096e-07 0.0000000000000000e+00  1.0659231185069042e+00 -3.9758807729079818e-03 0.0000000000000000e+00  1.2926161621596604e+00 -1.6204752278485510e-01 0.0000000000000000e+00  1.4466589963833469e+00 2.6186528688303651e-01 0.0000000000000000e+00  -4.4990192250421367e-06 5.8509114532848513e-09 0.0000000000000000e+00  1.1105732164669546e+00 6.8110960180565018e-05 0.0000000000000000e+00  1.1498485586315688e+00 -1.6649188227713451e-05 0.0000000000000000e+00  -3.3872327707227830e-06 1.3861251847731842e-09 0.0000000000000000e+00  -1.0018849083348334e-05 3.8082178535716625e-09 0.0000000000000000e+00  -3.9191225953613741e-06 -1.7359860763947955e-08 0.0000000000000000e+00  1.7234547307670760e-06 8.8380488041756989e-09 0.0000000000000000e+00  -2.0945918440514597e-06 -2.0517846060459441e-09 0.0000000000000000e+00  -1.0076233586125395e-05 2.2599033346247332e-06 0.0000000000000000e+00  1.8521302128630566e-07 1.7929300709256018e-07 0.0000000000000000e+00  -4.8837108109597395e-06 1.1666381052322018e-07 0.0000000000000000e+00  7.6909067655219580e-06 6.3918175565506198e-08 0.0000000000000000e+00  9.6884407520047644e-07 7.6360689078792782e-07 0.0000000000000000e+00  -4.4316906410545545e-06 -3.8262667966350659e-07 0.0000000000000000e+00  9.3988699516147544e-07 1.5937262801381334e-07 0.0000000000000000e+00  -1.1596798690303871e-07 3.9434892661611253e-09 0.0000000000000000e+00  1.3214355998074070e-05 -9.0931879069435367e-07 0.0000000000000000e+00  1.2691322742526786e-06 1.4783597452788029e-07 0.0000000000000000e+00  -7.7727990263531399e-07 -1.8125785329613938e-08 0.0000000000000000e+00  -7.1350714937958674e-06 -1.0574144288009367e-08 0.0000000000000000e+00  -2.1037212778707794e-06 3.7028951845087044e-09 0.0000000000000000e+00  -6.3392113429888382e-07 3.7841145915362246e-09 0.0000000000000000e+00  1.0673138013174572e+00 7.6417813253386153e-05 0.0000000000000000e+00  1.0681278957322484e+00 -2.6192759582067249e-04 0.0000000000000000e+00  1.0908759908097030e+00 1.3821915748974837e-04 0.0000000000000000e+00  1.1082350504974710e+00 -2.2153655588623853e-04 0.0000000000000000e+00  1.1499024405554030e+00 7.3493620494245932e-05 0.0000000000000000e+00  1.1496122365688213e+00 -1.4933476742912930e-04 0.0000000000000000e+00  1.0373060434811605e+00 -5.3512059543400492e-02 0.0000000000000000e+00  1.0500868898275870e+00 2.1750096371344011e-05 0.0000000000000000e+00  -6.0880511631867695e-01 6.4318367785723932e-02 0.0000000000000000e+00  1.5689648892661703e+00 1.3279143207843577e-01 0.0000000000000000e+00  2.5885773038008597e-01 -8.2142531092193535e-02 0.0000000000000000e+00  1.1498379369584848e+00 -7.0832067193189044e-05 0.0000000000000000e+00  1.1499360961576675e+00 -6.4975105828618039e-05 0.0000000000000000e+00  1.1499188834066978e+00 -6.2818335958257112e-05 0.0000000000000000e+00  1.1498653515968029e+00 -2.3847762177164112e-05 0.0000000000000000e+00  1.0654222174864583e+00 3.2067912425163497e-05 0.0000000000000000e+00  1.0904368630279193e+00 -1.1513572850443953e-04 0.0000000000000000e+00  1.0506894691129005e+00 6.0841411175336233e-05 0.0000000000000000e+00  1.1432510302218628e+00 6.1535842066218714e-05 0.0000000000000000e+00  1.1101971013911163e+00 1.2312733973670351e-01 0.0000000000000000e+00  8.1574257868508793e-01 -1.0181287035308113e-01 0.0000000000000000e+00  6.4682183470966892e-01 9.8801865660600965e-02 0.0000000000000000e+00  1.1498266544607294e+00 5.4151555461383124e-05 0.0000000000000000e+00  1.1495096988663973e+00 -8.6066649898903220e-05 0.0000000000000000e+00  1.1497083611902488e+00 -1.9150738558647096e-05 0.0000000000000000e+00  1.0958528692922773e+00 4.8909680652797188e-05 0.0000000000000000e+00  1.1498415143650520e+00 7.2180069471382169e-05 0.0000000000000000e+00  1.1498455605215501e+00 -3.9740139870947405e-04 0.0000000000000000e+00  1.0787031483565288e+00 6.6440482986447353e-05 0.0000000000000000e+00  1.1496876015547970e+00 4.3585447769676091e-05 0.0000000000000000e+00  1.0703425222534031e+00 9.5744822417580364e-05 0.0000000000000000e+00  1.4858423453500100e+00 2.0921159417441014e-02 0.0000000000000000e+00  6.5624822805823069e-01 -2.4048217227021811e-07 0.0000000000000000e+00  7.2062609456986415e-01 6.0369309396612315e-02 0.0000000000000000e+00  1.4535850989839341e+00 1.6902918833863614e-01 0.0000000000000000e+00  1.6480668098899427e+00 3.2000522405994153e-01 0.0000000000000000e+00  1.0221411195719150e+00 -4.0853632623227319e-05 0.0000000000000000e+00  1.1668172629363680e+00 -3.8383422576936610e-02 0.0000000000000000e+00  1.1496648160608203e+00 -1.4285122861879059e-03 0.0000000000000000e+00  1.1490969579037245e+00 -7.2112402132127460e-05 0.0000000000000000e+00  1.1496001143800361e+00 -9.4696053710680278e-06 0.0000000000000000e+00  1.1495055341484390e+00 -6.2515734325523626e-05 0.0000000000000000e+00  1.2163113954483531e+00 1.6720879145883755e-01 0.0000000000000000e+00  8.7349000787772102e-01 1.2850060222076692e-01 0.0000000000000000e+00  7.1665682302674627e-01 3.9011000921456679e-02 0.0000000000000000e+00  1.1498713759586721e+00 1.8722381419007571e-06 0.0000000000000000e+00  1.1490064384662244e+00 -2.0760602650706412e-05 0.0000000000000000e+00  1.4295857755774870e+00 -3.6712225123732775e-02 0.0000000000000000e+00  1.1496953978953381e+00 -7.0513217245520381e-05 0.0000000000000000e+00  7.8677872160020612e-01 -1.0145803281846469e-01 0.0000000000000000e+00  1.0379800069515572e+00 6.5042753906319336e-05 0.0000000000000000e+00  7.4462366304971372e-01 7.4425993134796642e-02 0.0000000000000000e+00  9.4209503308620934e-01 9.4883126202939427e-02 0.0000000000000000e+00  6.0495764016079123e-01 -1.0431014465237011e-02 0.0000000000000000e+00  1.5518649962831752e+00 2.9925884639416706e-01 0.0000000000000000e+00  1.1497300475835535e+00 9.4643225222404727e-05 0.0000000000000000e+00  1.1698040571973420e+00 5.0690337537160459e-03 0.0000000000000000e+00  1.2239697386487902e+00 1.7571535401239916e-01 0.0000000000000000e+00  1.0702416662360545e+00 -1.3353269919109928e-05 0.0000000000000000e+00  1.1313905973432798e+00 -1.6734653437639035e-04 0.0000000000000000e+00  1.1490495638906086e+00 -5.4439027916222725e-04 0.0000000000000000e+00  1.1495702878099119e+00 -2.1315790490486719e-04 0.0000000000000000e+00  1.4101175842840559e+00 1.5819535443028030e-02 0.0000000000000000e+00  1.1494050705922445e+00 4.3596540681624310e-05 0.0000000000000000e+00  1.1496199160698310e+00 -2.3590729188147692e-05 0.0000000000000000e+00  1.1492768685197732e+00 -5.4692391672175159e-05 0.0000000000000000e+00  1.1473238698771620e+00 -1.9741424815592169e-03 0.0000000000000000e+00  9.4839930903452851e-01 -2.9451453911452272e-04 0.0000000000000000e+00  9.4837886428023332e-01 -2.2745843411038508e-04 0.0000000000000000e+00  1.0008087991787959e+00 -6.7579834017498792e-04 0.0000000000000000e+00  1.0438349986294047e+00 -2.4366737050690818e-04 0.0000000000000000e+00  1.0732411108896573e+00 -3.7184513176561163e-05 0.0000000000000000e+00  1.1490053583619613e+00 -5.0257405538862132e-05 0.0000000000000000e+00  9.8707011112627219e-01 -1.4310405425909122e-04 0.0000000000000000e+00  1.1499564232610604e+00 1.5152113985936124e-05 0.0000000000000000e+00  1.1494233778934229e+00 -2.0347984788084193e-05 0.0000000000000000e+00  1.3428844375567919e+00 -9.3350157757267405e-02 0.0000000000000000e+00  1.1498102135406363e+00 -5.3931420676586125e-05 0.0000000000000000e+00  1.1495355297007284e+00 1.5248771958819691e-05 0.0000000000000000e+00  1.1647403716713538e+00 -1.3040932710489070e-01 0.0000000000000000e+00  8.9618691049379640e-01 -2.9913106079812853e-04 0.0000000000000000e+00  1.1434316290874478e+00 -5.4973136410577789e-04 0.0000000000000000e+00  1.5651104363280837e+00 -5.4752610635016075e-01 0.0000000000000000e+00  1.0275016194874642e+00 2.0134654177976534e-04 0.0000000000000000e+00  7.3796029221376813e-01 -7.8110330664618699e-02 0.0000000000000000e+00  1.4844094175498128e+00 -3.8803543956381040e-02 0.0000000000000000e+00  1.0159197009886898e+00 4.6456982689429506e-03 0.0000000000000000e+00  9.4083562027734280e-01 1.4164749580392066e-04 0.0000000000000000e+00  1.5359483884028569e+00 4.7940461795885925e-01 0.0000000000000000e+00  1.0095934392904564e+00 1.8319104935205502e-01 0.0000000000000000e+00  1.0016938748658644e+00 1.3248549531444216e-04 0.0000000000000000e+00  1.9163738793323470e+00 2.6456732646504416e-01 0.0000000000000000e+00  1.4553282575136377e+00 -5.0915620025705366e-01 0.0000000000000000e+00  9.7555038657500992e-01 -1.9094324074576571e-01 0.0000000000000000e+00  9.8082226134360195e-01 -1.0261387686675774e-02 0.0000000000000000e+00  7.4496925989393858e-01 -4.8630260167797576e-02 0.0000000000000000e+00  9.8134149569591789e-01 4.2751407443706498e-05 0.0000000000000000e+00  1.0205418171213261e+00 5.7195053751374747e-05 0.0000000000000000e+00  1.1487919384355341e+00 -3.5738955411859335e-04 0.0000000000000000e+00  2.3603449690849551e-01 -2.1985350724512923e-01 0.0000000000000000e+00  1.4062434293068051e+00 -1.8960051242575926e-06 0.0000000000000000e+00  1.1498282561629667e+00 5.5943702099342514e-05 0.0000000000000000e+00  1.0025489501756479e+00 -6.7210295508965759e-04 0.0000000000000000e+00  1.4062432099857165e+00 -1.6444588803885548e-06 0.0000000000000000e+00  1.0024111893379226e+00 -1.1140152409884606e-05 0.0000000000000000e+00  1.1475292932164785e+00 -6.2676282753705015e-03 0.0000000000000000e+00  1.1567142465322662e+00 6.6233484205646939e-02 0.0000000000000000e+00  1.1493078273217916e+00 -3.4940753990353735e-05 0.0000000000000000e+00  7.1622263601563074e-01 1.0008087156738833e-01 0.0000000000000000e+00  1.1497485305287820e+00 -1.3005243681946735e-05 0.0000000000000000e+00  9.8245661532311201e-01 -2.5498134369772365e-04 0.0000000000000000e+00  9.0902177563619224e-01 4.0036668284715041e-02 0.0000000000000000e+00  8.4275948324231842e-01 8.1271264803080466e-05 0.0000000000000000e+00  1.1481057938824066e+00 -1.1037117270857368e-05 0.0000000000000000e+00  8.4319297937522097e-01 -2.8862350163600385e-06 0.0000000000000000e+00  9.4696774897