<?xml version="1.0"?>
<VTKFile type="UnstructuredGrid"  version="0.1"  >
<UnstructuredGrid>
<Piece  NumberOfPoints="2446" NumberOfCells="4585">
<Points>
<DataArray  type="Float64"  NumberOfComponents="3"  format="ascii">0 0.41 0  0 0 0  2.2 0 0  2.2 0.41 0  0.2404508497187474 0.2293892626146237 0  0.25 0.2 0  0.2404508497187474 0.1706107373853764 0  0.2154508497187474 0.1524471741852423 0  0.1845491502812526 0.1524471741852423 0  0.1595491502812526 0.1706107373853764 0  0.15 0.2 0  0.1595491502812526 0.2293892626146237 0  0.1845491502812527 0.2475528258147577 0  0.2154508497187474 0.2475528258147577 0  1.1 0 0  1.1 0.41 0  0 0.205 0  0.55 0 0  0.55 0.41 0  0.275 0 0  0.275 0.41 0  1.65 0.41 0  1.65 0 0  0.8250000000000001 0.41 0  0.8250000000000001 0 0  1.375 0 0  1.375 0.41 0  1.925 0 0  1.925 0.41 0  1.5125 0.205 0  1.7875 0.205 0  0.6875 0.205 0  0.9625000000000001 0.205 0  1.2375 0.205 0  2.2 0.205 0  0.4687002074688797 0.2068568464730291 0  1.99375 0.2152743902439024 0  2.0625 0 0  2.0625 0.41 0  2.2 0.3075 0  0.4125 0 0  0.4125 0.41 0  1.7875 0.41 0  1.375 0.1486128048780488 0  1.5125 0 0  1.7875 0 0  1.5125 0.41 0  0.8250000000000001 0.2613871951219511 0  0.9625000000000001 0.41 0  0.9625000000000001 0 0  0.6875 0.41 0  0.6875 0 0  0.1375 0 0  0.1375 0.41 0  1.2375 0 0  1.1 0.1486128048780487 0  1.2375 0.41 0  1.65 0.1486128048780487 0  1.126715909090909 0.2793064024390244 0  1.676715909090909 0.2793064024390244 0  0.8517159090909092 0.1306935975609756 0  1.348284090909091 0.2793064024390244 0  0.34375 0.3032389320646208 0  1.894702181800738 0.1282910975492754 0  2.092797818199262 0.1282910975492754 0  1.85625 0.3075 0  0.61875 0.3075 0  0.61875 0.1025 0  0.3648540804333487 0.1240075933101478 0  0 0.3075 0  0 0.1025 0  2.099172119769978 0.25625 0  0.48125 0.09238439620688085 0  0.5781001037344399 0.2059284232365146 0  0.48125 0.3196743479159776 0  0.7265881057911006 0.3055240343720796 0  1.99375 0.08395950269330846 0  1.459960956013612 0.3075 0  1.569025960719943 0.2986889805672169 0  0.75625 0.08213100772579164 0  1.03125 0.3278689922742084 0  0.923871252904788 0.3078247185783941 0  1.959375 0.3126371951219512 0  1.749222215368287 0.1025 0  1.275777784631713 0.1025 0  2.2 0.1025 0  1.225938124459196 0.3075 0  1.550777784631713 0.1025 0  1.000777784631713 0.1025 0  1.44375 0.07430640243902442 0  1.16875 0.07430640243902437 0  1.899250267340833 0.2229966846119207 0  0.1020898364287272 0.3140258291809757 0  1.766482954545455 0.2934032012195123 0  0.3405058858996321 0.2119987970531874 0  0.7710785630958338 0.1710968191298857 0  1.046078563095834 0.2389031808701144 0  0.2 0.3400647632937836 0  1.421109702350723 0.2261157654379721 0  0.2800464974185557 0.08982544815605742 0  0.098916018031319 0.09171660955420841 0  2.13125 0 0  2.118919042110979 0.3422084711244843 0  1.30625 0.41 0  0.89375 0 0  1.597888256393107 0.2173787389261347 0  0.20625 0 0  1.829299675393195 0.07400700849299596 0  1.71875 0.41 0  1.16875 0.41 0  2.038220665644273 0.332420740103091 0  0.34375 0 0  0.417496017710808 0.2696595573092803 0  0.2 0.07687845740457822 0  0.9295982307099278 0.1343158415898188 0  0.07390688010811153 0.1697064032433452 0  0.5238366813727013 0.2578302467013575 0  0.05452951551825875 0.25625 0  0.5229630068078351 0.1548816096928243 0  1.452769549894695 0.1548122580621249 0  1.369219062229598 0.07430640243902442 0  1.30625 0 0  0.8504409521244898 0.3356935975609756 0  0.8821881244591965 0.205 0  1.720943423819132 0.1714577452753128 0  1.157188124459196 0.205 0  1.094219062229598 0.07430640243902437 0  1.03125 0 0  1.304056576180868 0.1714577452753128 0  1.67579304192913 0.07430640243902437 0  0.2751941921308361 0.3346083473122598 0  1.209670467133757 0.1362100266964769 0  1.025335513626278 0.1700681449722324 0  0.7562500000000001 0.41 0  1.58125 0 0  0.7567170593862014 0.2409196493502535 0  0.6926714215682891 0.1272249611432207 0  0.4139715849905988 0.3397932387114203 0  0.9840787304190477 0.2717749043358119 0  0.06875000000000001 0.41 0  0 0.35875 0  0.9281250000000001 0.06276726142697993 0  0.5507396469029935 0.3219409231578227 0  0.5504468037989405 0.09136885600634273 0  1.58125 0.41 0  1.631724228912893 0.3381867502687533 0  1.825608881788174 0.14499488549201 0  1.85625 0 0  1.44375 0 0  1.44375 0.41 0  1.85625 0.41 0  2.13125 0.41 0  0.7562500000000001 0 0  0.89375 0.41 0  0.4812500000000001 0 0  0.34375 0.41 0  0.4812500000000001 0.41 0  0.20625 0.41 0  0.06875000000000001 0 0  1.16875 0 0  0.61875 0 0  0.61875 0.41 0  1.03125 0.41 0  1.71875 0 0  1.99375 0 0  1.99375 0.41 0  1.340625 0.3489494290853124 0  1.134375 0.3489494290853123 0  1.700180620188976 0.3438659752031281 0  2.135782184673599 0.07126652247502523 0  1.668441847249787 0.2129203728327609 0  1.295782514339747 0.2378437748815763 0  0.8233075729931248 0.06842334294821524 0  1.409375 0.3520314716057996 0  0.403505597322782 0.182067236678212 0  0.378125 0.05794951541303489 0  0.3043468223249023 0.1518321115979534 0  2.129248544730567 0.1906135162504124 0  2.060771381434487 0.1989445750470348 0  2.013252586573865 0.1496169464686054 0  1.942766402200229 0.1734448904596831 0  1.895522487186454 0.06076163953489683 0  2.069553871656643 0.06605731020975725 0  1.274680914880868 0.3520219391081363 0  1.614713220494657 0.09473434380863296 0  0.7899021319497519 0.3149123934144827 0  0.69518737419149 0.0634051089053758 0  0.2971740475496061 0.2592172353407536 0  1.72990325744076 0.2380068107952482 0  1.356580098625191 0.2120393231351682 0  2.034370752044885 0.2668681600792073 0  1.51768709249349 0.3426260931494756 0  1.561883724969884 0.1650446847858835 0  1.197344062229598 0.2523725417393646 0  1.804085235518364 0.3468178408964637 0  1.817887819205233 0.2589243285818559 0  1.905897727272727 0.3485060975609756 0  0.6719798073392919 0.2688965171178177 0  0 0.05125 0  0.653125 0.35875 0  0.6396896119294488 0.1627615407790282 0  0.4274150154087412 0.1242548552168279 0  1.192836486056382 0.3562350748565544 0  0.8279124365364005 0.183856489168822 0  1.097485222388854 0.2083571153401724 0  1.28257088594801 0.2944411014911587 0  1.474860187679412 0.2504218616229368 0  1.406767003493824 0.2829282258560709 0  0.446875 0.04619219810344041 0  0.515625 0.04585361801037557 0  0.592043440706648 0.05125 0  1.845656689180403 0.1998310418452388 0  2.144958525570388 0.2909790873294231 0  0.6171090763650112 0.2492366900333857 0  2.2 0.15375 0  0.5145586920831158 0.3648371739579888 0  1.57794966442982 0.3540357145964566 0  0.721875 0.3633107922168974 0  0.0496154796471391 0.333125 0  0.5843750000000001 0.3662560860076676 0  0.5810878747760798 0.1474002776121195 0  1.508991196088596 0.1421783375065625 0  0.8840670607017558 0.2640994375393898 0  0.09776612425612034 0.2204896805326566 0  1.50436820029908 0.06143401634903343 0  1.223857000523521 0.0823554862453532 0  1.153316824384777 0.1289850171317837 0  2.148922302309752 0.1258841779285271 0  0.309375 0.04312325590431198 0  1.621993280276081 0.2841214267927899 0  1.550118654119087 0.2461998729100966 0  1.327182649291491 0.1216967252533594 0  1.051977450479407 0.1221382572915816 0  1.753125 0.04556020050186112 0  1.271875 0.04556020050186116 0  0.9816084133102366 0.05126138213476004 0  1.039051841454368 0.0572224914831029 0  0.9719230514536006 0.3480477870845102 0  1.94956388244759 0.1180512551534177 0  1.949997712993411 0.04965831614304109 0  1.771961817615021 0.1530278789497521 0  1.909246823951428 0.2812757146784527 0  0.2459536687882397 0.04668633953831142 0  1.948575539857022 0.2445328248721197 0  1.697271520964565 0.1233917627620729 0  0.7964897648514618 0.1211426571931604 0  1.065625 0.3689344961371042 0  1.085849084308977 0.3170853572226867 0  0.4702981435440001 0.260434880697798 0  1.577403511714593 0.05463601888079143 0  0.05622663515370135 0.05493816910862376 0  0.3267207591099919 0.3566194660323104 0  0.9003051618565143 0.3564049499960621 0  1.751571320346033 0.3651102912045228 0  0.1583785085108421 0.2994699345738728 0  0.1455283439499995 0.3542795598723423 0  2.2 0.35875 0  0.2347662494194072 0.298325008655211 0  0.1527284455616188 0.1065771775690181 0  0.1382139529076665 0.05427454456341477 0  0.8749341636311069 0.05110114999892954 0  0.643661668713109 0.05693499781019222 0  1.466879772203159 0.3611261772912453 0  1.990280163552011 0.3564754268533217 0  1.17471064520912 0.2990917256188288 0  0.5202693090594349 0.206382495511728 0  0 0.25625 0  2.2 0.25625 0  2.2 0.05125 0  0 0.15375 0  1.853978576207987 0.35875 0  0.9787513713939683 0.1487523696999336 0  0.240625 0.3722153812029779 0  1.515638456102889 0.2882700110184686 0  0.09048297387599738 0.3637717362208066 0  2.150453692751374 0.2387066338105111 0  1.323782677156475 0.04897634338873398 0  0.8074131292871642 0.3624701995505916 0  1.409375 0.03715320121951221 0  1.406484531114799 0.1087852750766809 0  1.134375 0.03715320121951218 0  1.627401732573545 0.04552157221025036 0  0.1170173172005315 0.1427610859166811 0  2.045405893604797 0.1105340662939892 0  1.255408269734577 0.1577307500159216 0  2.028125 0.03707597992059326 0  0.4743610090857199 0.1421513964721819 0  0.9354010469015898 0.250631300585664 0  0.04420832937638274 0.128125 0  0.8922386349349938 0.0992956419364831 0  0.1197849154434487 0.2663398672460083 0  1.248258025468107 0.2565907092181813 0  0.3746885856929528 0.370723531618974 0  1.203125 0.0366132337404304 0  0.5724622277005015 0.2751253816079333 0  0.3365425205162783 0.08395777655057959 0  2.072662025974815 0.2975086504196739 0  0.4581080832182547 0.3648371739579888 0  0.3874522734668214 0.2295447548840689 0  0.7827853612484443 0.04106550386289586 0  1.887722846421017 0.1760882698830035 0  1.472640588990488 0.1118278026240017 0  1.865937103925594 0.2604137786483804 0  1.463913572748262 0.2030442564990043 0  1.376426316059077 0.3186741374914345 0  0.6641993820150034 0.3141688596240831 0  0.2943117490824315 0.2130987422685822 0  0.3478153998082709 0.1666571081082676 0  0.3427990510599805 0.2575950027870776 0  0.7997118993855807 0.2216171933356366 0  
[...]
<PointData  Vectors="f_31"> 
<DataArray  type="Float64"  Name="f_31"  NumberOfComponents="3" format="ascii">1.3992238255593014e-06 -5.5655351583741736e-07 0.0000000000000000e+00  -3.3440149282369994e-06 1.1410845788568976e-06 0.0000000000000000e+00  3.7586445203402256e-06 6.7062407773107223e-08 0.0000000000000000e+00  -1.7351022935653922e-05 3.4281925890534460e-07 0.0000000000000000e+00  2.3124783297595471e-05 -3.6401143967575240e-05 0.0000000000000000e+00  5.2990610494229245e-05 -1.8017162423682970e-05 0.0000000000000000e+00  8.0399011560881295e-05 3.6994332398535412e-05 0.0000000000000000e+00  -2.0548899311416955e-06 -1.1708188915029735e-05 0.0000000000000000e+00  -1.5101037240620042e-05 -1.1206684684733708e-05 0.0000000000000000e+00  -1.0457751615271132e-05 4.0419399317235088e-06 0.0000000000000000e+00  2.4218192649718719e-06 6.8694006142169282e-06 0.0000000000000000e+00  -6.4772407219867902e-06 -5.4242256802736709e-06 0.0000000000000000e+00  9.6400570834395471e-06 5.5922810994262913e-06 0.0000000000000000e+00  -7.2305749763071500e-06 -1.1473453155921685e-06 0.0000000000000000e+00  -3.3143217898901367e-06 -1.3298551626032773e-07 0.0000000000000000e+00  -1.1392167066629264e-06 -3.1556802109245604e-08 0.0000000000000000e+00  1.5000040007196802e+00 1.0880207463285623e-06 0.0000000000000000e+00  -1.0795702644043746e-05 -2.4101123463383431e-08 0.0000000000000000e+00  9.5708010473595087e-07 -1.1836974697399734e-08 0.0000000000000000e+00  -6.7354961062490270e-06 3.6032245374782340e-06 0.0000000000000000e+00  -1.6462398412296243e-05 -2.5019858068228441e-06 0.0000000000000000e+00  -1.1583546723008412e-06 -2.4970975260825471e-07 0.0000000000000000e+00  -8.4390113495407649e-07 1.4180707859377469e-08 0.0000000000000000e+00  -4.2966271272373347e-07 -9.0934586345305442e-08 0.0000000000000000e+00  -6.8892104276990638e-06 -3.1709336389591180e-08 0.0000000000000000e+00  -4.6281024400931619e-06 -2.0707356101755205e-08 0.0000000000000000e+00  -1.6784304551168498e-06 -3.5026523382443468e-07 0.0000000000000000e+00  -3.5923084866899303e-06 -1.4581236959287841e-08 0.0000000000000000e+00  -3.4258878914036009e-06 -3.7298782619017282e-08 0.0000000000000000e+00  1.0784463473340222e+00 3.8028334218947069e-05 0.0000000000000000e+00  1.0783510613273950e+00 3.3155380732465273e-05 0.0000000000000000e+00  1.0773835653735351e+00 -1.5455678224497533e-03 0.0000000000000000e+00  1.0783112495437057e+00 -1.1981141082631719e-04 0.0000000000000000e+00  1.0781736246768676e+00 -3.4693024307318361e-06 0.0000000000000000e+00  1.0788243423999200e+00 1.0986623742320955e-04 0.0000000000000000e+00  1.0212003243213901e+00 -1.4533587320812353e-02 0.0000000000000000e+00  1.0782760655851134e+00 1.9015353259322236e-06 0.0000000000000000e+00  -5.0912800459734401e-07 -9.6005931484003739e-08 0.0000000000000000e+00  -6.1452157660239196e-07 1.7020971616355226e-07 0.0000000000000000e+00  1.0781262378839933e+00 -5.1535123910874012e-04 0.0000000000000000e+00  -7.2225618692844359e-06 -4.2806291734605343e-07 0.0000000000000000e+00  -4.9995431554542995e-06 5.9284333049173049e-07 0.0000000000000000e+00  -7.2395922456684579e-06 1.5869437121773439e-08 0.0000000000000000e+00  1.0783908138675542e+00 4.8169737212082707e-05 0.0000000000000000e+00  -1.4295175040804440e-06 -2.4164668100068851e-07 0.0000000000000000e+00  -5.0755232089307379e-06 2.6895136115994664e-08 0.0000000000000000e+00  -6.0175376264200067e-07 -1.5957836508702425e-07 0.0000000000000000e+00  1.0785008185559062e+00 -4.7956790977869728e-04 0.0000000000000000e+00  -2.7020905322558885e-06 1.3729771841310286e-07 0.0000000000000000e+00  1.7194541411287674e-06 6.7023691705112030e-08 0.0000000000000000e+00  2.1543605086622497e-06 -2.1281052413353803e-07 0.0000000000000000e+00  -8.3144425148485036e-06 3.1278285424118363e-07 0.0000000000000000e+00  1.9894018025592557e-05 -1.5861653679324912e-05 0.0000000000000000e+00  2.2961465987575484e-05 8.4304249696241159e-06 0.0000000000000000e+00  8.7143395304983059e-08 2.7082565052566761e-08 0.0000000000000000e+00  1.0781567341640812e+00 -5.2310038614712819e-05 0.0000000000000000e+00  -2.1219327889564365e-06 -9.9146717278249145e-08 0.0000000000000000e+00  1.0783640619655657e+00 -5.9116605338692991e-05 0.0000000000000000e+00  1.0782615694065367e+00 -4.1544210226896479e-05 0.0000000000000000e+00  1.0781985588280560e+00 -5.7055306523322066e-05 0.0000000000000000e+00  1.0781430530554807e+00 -2.2157805138707005e-04 0.0000000000000000e+00  1.0784771948496539e+00 6.6463325742761504e-05 0.0000000000000000e+00  1.3341519413797889e+00 -2.6525014762349136e-01 0.0000000000000000e+00  1.0782684608590705e+00 -7.1758158866996123e-05 0.0000000000000000e+00  1.0784165296648047e+00 1.4128190224377117e-04 0.0000000000000000e+00  1.0781545291770080e+00 2.1820012436651821e-05 0.0000000000000000e+00  1.0816231992926246e+00 -4.7383090764720696e-03 0.0000000000000000e+00  1.0770724033165224e+00 1.0560674118072716e-03 0.0000000000000000e+00  1.1521962595396427e+00 3.1283999469485357e-01 0.0000000000000000e+00  1.1249985160511986e+00 1.0698702373194450e-06 0.0000000000000000e+00  1.1249897103622728e+00 2.6905242090050686e-07 0.0000000000000000e+00  1.0783368927962556e+00 3.6691785573145737e-05 0.0000000000000000e+00  1.0932530036898842e+00 3.2045347928414104e-02 0.0000000000000000e+00  1.0712501179169684e+00 -4.1842026020053932e-03 0.0000000000000000e+00  1.1101559157941716e+00 -3.8338224486399647e-02 0.0000000000000000e+00  1.0791931152270988e+00 -1.0259113134771195e-03 0.0000000000000000e+00  1.0781284013283026e+00 1.6085058932096505e-04 0.0000000000000000e+00  1.0781069018955918e+00 1.4663398510488746e-04 0.0000000000000000e+00  1.0780394429302618e+00 -7.9274607758517073e-06 0.0000000000000000e+00  1.0776944070621870e+00 -3.8419837539125322e-04 0.0000000000000000e+00  1.0775614381724450e+00 4.8449176891497919e-04 0.0000000000000000e+00  1.0783981467972812e+00 -4.9186669420918600e-05 0.0000000000000000e+00  1.0781810370265636e+00 1.9475163514534054e-04 0.0000000000000000e+00  1.0781177079867836e+00 -2.4353091906229204e-05 0.0000000000000000e+00  1.0783258691943454e+00 9.9179671267591338e-05 0.0000000000000000e+00  1.0781821267827578e+00 6.2758537591200232e-04 0.0000000000000000e+00  1.0782221693784890e+00 -1.2718915301703268e-04 0.0000000000000000e+00  1.0782333488241416e+00 4.8201258842388788e-05 0.0000000000000000e+00  1.0782498224790869e+00 -1.4604020326975875e-04 0.0000000000000000e+00  1.0779243701957015e+00 -3.9095813235691656e-04 0.0000000000000000e+00  1.0778648481526281e+00 1.8837643305231905e-04 0.0000000000000000e+00  1.0782601776813063e+00 1.1585443375412019e-05 0.0000000000000000e+00  1.1923442254047905e+00 2.3602595314570390e-01 0.0000000000000000e+00  1.0783606752615522e+00 2.9139945614389119e-05 0.0000000000000000e+00  1.5641225056484651e-01 -2.5117602014443136e-01 0.0000000000000000e+00  1.0779451939017057e+00 -6.2104313099540023e-04 0.0000000000000000e+00  1.0783216322109248e+00 -3.4536755784071167e-05 0.0000000000000000e+00  1.3619939702160004e+00 2.5227741231613887e-01 0.0000000000000000e+00  1.0783006414685792e+00 4.5143149620326021e-05 0.0000000000000000e+00  1.6011443053456242e+00 1.7059833411618174e-02 0.0000000000000000e+00  1.1528190340564046e+00 -2.3651687014418879e-01 0.0000000000000000e+00  -8.4589628465507664e-07 8.4767546445838388e-08 0.0000000000000000e+00  1.0765896414634608e+00 9.8631416512919468e-04 0.0000000000000000e+00  -3.5546275630033542e-06 3.0623430432808035e-08 0.0000000000000000e+00  -8.8039587130725293e-06 8.5948028986446092e-08 0.0000000000000000e+00  1.0784235422020956e+00 -3.9049267175593266e-05 0.0000000000000000e+00  5.7003182063510558e-06 1.5436332050961933e-06 0.0000000000000000e+00  1.0776152955238483e+00 -1.7290006953690342e-04 0.0000000000000000e+00  -4.4834943921733499e-06 -4.0906286177480833e-08 0.0000000000000000e+00  -1.7502710245917363e-06 1.0233115745320726e-07 0.0000000000000000e+00  1.0781403058210381e+00 -3.5462905503483636e-04 0.0000000000000000e+00  -1.6276809720524115e-06 5.5878294377609533e-07 0.0000000000000000e+00  1.0626762008564707e+00 -1.4931713387968604e-01 0.0000000000000000e+00  1.5319962712638462e+00 -2.6872786513024111e-01 0.0000000000000000e+00  1.0782456320657388e+00 -1.3450005152933027e-04 0.0000000000000000e+00  1.3390001577823134e+00 -1.0985337306264358e-01 0.0000000000000000e+00  1.0711148100518033e+00 -2.2268519390026761e-02 0.0000000000000000e+00  1.3734947964500472e+00 1.2122013778059433e-01 0.0000000000000000e+00  1.0636962493606259e+00 1.0599144999565798e-02 0.0000000000000000e+00  1.0782296905694504e+00 2.5988606799978153e-05 0.0000000000000000e+00  1.0773693721920337e+00 -4.1246007067634007e-04 0.0000000000000000e+00  -7.7430365179397242e-07 1.7709839017919051e-07 0.0000000000000000e+00  1.0780056507191154e+00 -1.8960405059408739e-04 0.0000000000000000e+00  1.0783090790942096e+00 -2.4180209456556827e-04 0.0000000000000000e+00  1.0782919114202778e+00 2.8015922220367304e-05 0.0000000000000000e+00  1.0781234257293031e+00 -9.0749944707318797e-06 0.0000000000000000e+00  1.0778930150334673e+00 -2.0487279163418953e-04 0.0000000000000000e+00  -4.4321645491924795e-06 1.3680519204464416e-07 0.0000000000000000e+00  1.0783082911416610e+00 5.5464642582042185e-05 0.0000000000000000e+00  1.0770433863145215e+00 -2.7766390406696375e-04 0.0000000000000000e+00  1.4555194464602155e+00 6.7198083837594305e-02 0.0000000000000000e+00  1.0782651553934672e+00 2.8474474693075319e-05 0.0000000000000000e+00  1.0782209567655656e+00 -1.0194293354137885e-04 0.0000000000000000e+00  -1.8808687845884756e-06 -2.6441351727428151e-08 0.0000000000000000e+00  -1.5437160792986630e-05 -1.6436474762637132e-07 0.0000000000000000e+00  1.0784334760123655e+00 -9.7192162886363667e-04 0.0000000000000000e+00  1.0775225818622591e+00 -3.8933090136284560e-04 0.0000000000000000e+00  1.1936825173654808e+00 -7.6995840285714934e-02 0.0000000000000000e+00  1.0784064573452299e+00 -7.3803006957054803e-05 0.0000000000000000e+00  -5.2138784624456242e-06 5.8471688476099360e-07 0.0000000000000000e+00  6.5625032380400683e-01 5.1382330715132245e-08 0.0000000000000000e+00  1.0762071307187118e+00 1.2987795933496710e-04 0.0000000000000000e+00  1.0891448731049849e+00 -1.1990794224634749e-02 0.0000000000000000e+00  1.0806512348583863e+00 7.1561895834891167e-03 0.0000000000000000e+00  -6.9801425771242717e-06 2.1041515331542540e-07 0.0000000000000000e+00  1.0769631236113228e+00 7.8921855234824565e-04 0.0000000000000000e+00  1.0783334258954278e+00 -2.7455537088573737e-05 0.0000000000000000e+00  -3.8290617822839415e-06 -7.7907874669489261e-08 0.0000000000000000e+00  -1.1850075864400662e-05 4.9508353361333944e-08 0.0000000000000000e+00  -7.2430571605229088e-06 -2.5904980381222779e-07 0.0000000000000000e+00  5.0921179073203798e-07 -1.0068330380051763e-07 0.0000000000000000e+00  -4.7726884324478225e-06 -1.7807271972287284e-07 0.0000000000000000e+00  -9.1673204953922006e-07 7.5888113366126058e-09 0.0000000000000000e+00  -4.1351426951388677e-07 -3.6919481440279374e-08 0.0000000000000000e+00  -3.1390038218183593e-06 -5.9144703701433256e-07 0.0000000000000000e+00  3.9716327117852063e-06 -1.8120074825732435e-06 0.0000000000000000e+00  -1.4293571027000214e-05 2.3075313504420973e-07 0.0000000000000000e+00  -5.7978772759016444e-06 -6.5785556327190615e-06 0.0000000000000000e+00  9.4591768511610133e-07 -2.6997974275527365e-06 0.0000000000000000e+00  -1.8453088555342402e-07 -1.4738580801880843e-07 0.0000000000000000e+00  -8.5107151687053756e-06 1.1931010492901381e-07 0.0000000000000000e+00  -5.9583140661410811e-06 -2.6498403002926158e-08 0.0000000000000000e+00  -8.6669400333846299e-07 -8.7417991508823878e-09 0.0000000000000000e+00  -8.8140946628120779e-06 -1.5676254312367033e-09 0.0000000000000000e+00  -2.5984320958952313e-06 -6.6017149836994164e-08 0.0000000000000000e+00  -2.1719178353080713e-06 -4.4317196488172646e-07 0.0000000000000000e+00  1.0733040983835094e+00 6.0092046189491263e-04 0.0000000000000000e+00  1.0761455316726769e+00 4.3787087901904403e-05 0.0000000000000000e+00  1.0764918938282060e+00 -9.2234746129410525e-04 0.0000000000000000e+00  1.0768263056531795e+00 -1.9637740280761175e-04 0.0000000000000000e+00  1.0783475358001375e+00 -3.8662585428426236e-06 0.0000000000000000e+00  1.0783042975375456e+00 -1.9545295251903872e-05 0.0000000000000000e+00  1.0758857548874003e+00 -6.6390011131620109e-04 0.0000000000000000e+00  1.0743416997595348e+00 5.9318814874532403e-04 0.0000000000000000e+00  8.7545085751486962e-01 8.3185367676044328e-02 0.0000000000000000e+00  1.2553413099308224e+00 9.5594464155322467e-02 0.0000000000000000e+00  8.8508953791919809e-01 4.6959719709956149e-01 0.0000000000000000e+00  1.0784430654702526e+00 1.3912594854610121e-04 0.0000000000000000e+00  1.0784271954312672e+00 7.5106532791894664e-05 0.0000000000000000e+00  1.0783354839311876e+00 7.6804208030040953e-05 0.0000000000000000e+00  1.0782518618103483e+00 -1.3450554297876657e-06 0.0000000000000000e+00  1.0743442137262256e+00 -3.8018825606563750e-04 0.0000000000000000e+00  1.0762280842279337e+00 1.8746574594152090e-04 0.0000000000000000e+00  1.0759486046628817e+00 -4.0109905667621041e-04 0.0000000000000000e+00  1.0780072716975240e+00 -2.3016214324991834e-04 0.0000000000000000e+00  1.0787086052750141e+00 -5.1862862247732731e-04 0.0000000000000000e+00  1.0754503025960189e+00 -4.6678854329366330e-04 0.0000000000000000e+00  1.2467540086080007e+00 -3.9280229509012138e-01 0.0000000000000000e+00  1.0783460672113820e+00 4.6346268279636564e-07 0.0000000000000000e+00  1.0782684734806920e+00 1.8008167307940405e-05 0.0000000000000000e+00  1.0783974902347158e+00 -1.3867724554026240e-05 0.0000000000000000e+00  1.0762163949047192e+00 2.6655036488491211e-04 0.0000000000000000e+00  1.0783335592148919e+00 -2.5043142390828949e-05 0.0000000000000000e+00  1.0782198279293242e+00 -1.4321707720230456e-05 0.0000000000000000e+00  1.0763503725893782e+00 5.0171372486338317e-04 0.0000000000000000e+00  1.0783505636279280e+00 3.5074652542403877e-05 0.0000000000000000e+00  1.0764727809907519e+00 1.5055316319723312e-04 0.0000000000000000e+00  1.0788651430727569e+00 -2.5573496237085076e-03 0.0000000000000000e+00  6.5624804506588075e-01 4.9545118799473455e-07 0.0000000000000000e+00  1.0739963931556320e+00 -4.7862207041972024e-04 0.0000000000000000e+00  1.0760622439869014e+00 -6.1597697801797321e-04 0.0000000000000000e+00  1.0708490930442243e+00 1.0687737305823682e-01 0.0000000000000000e+00  1.0727201789881307e+00 1.4233215765061518e-03 0.0000000000000000e+00  1.0780667847931733e+00 -3.9046741553508564e-04 0.0000000000000000e+00  1.0781524874912369e+00 -5.3123074781312462e-05 0.0000000000000000e+00  1.0785029056660205e+00 -1.5526029544960274e-04 0.0000000000000000e+00  1.0781948916791568e+00 3.6165042199612718e-05 0.0000000000000000e+00  1.0782918522334182e+00 1.0089243593609244e-04 0.0000000000000000e+00  1.1153687783448263e+00 1.4795247999539331e-02 0.0000000000000000e+00  1.0735318097273903e+00 2.5441785667155632e-03 0.0000000000000000e+00  1.0708392451918594e+00 1.5422316617384952e-04 0.0000000000000000e+00  1.0783114327816103e+00 -7.5681791655304344e-06 0.0000000000000000e+00  1.0782202472082874e+00 -3.2574121674335155e-05 0.0000000000000000e+00  1.0771481010938762e+00 -5.1253605969603265e-03 0.0000000000000000e+00  1.0785791183015310e+00 4.8217780778423645e-04 0.0000000000000000e+00  1.0841694062017091e+00 -5.0767624129838731e-03 0.0000000000000000e+00  1.0745949042520861e+00 1.6376297185561300e-05 0.0000000000000000e+00  1.0623903479225476e+00 -2.7608029259304631e-04 0.0000000000000000e+00  9.4150370243596260e-01 8.7619370205957614e-02 0.0000000000000000e+00  1.0648154803757888e+00 -2.0900489051992152e-03 0.0000000000000000e+00  1.0735324917093598e+00 2.4183958851862462e-03 0.0000000000000000e+00  1.0782422648759633e+00 4.8994919632398294e-05 0.0000000000000000e+00  1.0783839236431600e+00 -2.3148854624794143e-04 0.0000000000000000e+00  1.2251157004306110e+00 1.5674927371403072e-01 0.0000000000000000e+00  1.0763167498167956e+00 4.9590737906415015e-04 0.0000000000000000e+00  1.0779610582545083e+00 -1.1680087169126665e-04 0.0000000000000000e+00  1.0782911968252278e+00 1.8673810589832638e-05 0.0000000000000000e+00  1.0784110846973398e+00 2.4099554520035362e-04 0.0000000000000000e+00  1.3636451689387381e+00 8.0473212295833763e-02 0.0000000000000000e+00  1.0781625368599124e+00 4.0235464585494570e-06 0.0000000000000000e+00  1.0782102657879840e+00 -7.8392158594797479e-06 0.0000000000000000e+00  1.0784377138575691e+00 1.3483531304813310e-04 0.0000000000000000e+00  1.0781970865679471e+00 -9.8358522046937806e-05 0.0000000000000000e+00  1.0607749872959331e+00 5.9384552638425982e-04 0.0000000000000000e+00  1.0596175042354041e+00 -6.2510547114896970e-04 0.0000000000000000e+00  1.0719305007487074e+00 -1.0820189443513295e-03 0.0000000000000000e+00  1.0750900881784584e+00 -1.3365138453470596e-04 0.0000000000000000e+00  1.0765211168687647e+00 -2.3795163100359329e-04 0.0000000000000000e+00  1.0782899940656270e+00 -6.6684140151936293e-06 0.0000000000000000e+00  1.0634414479171928e+00 -1.1026245264265659e-03 0.0000000000000000e+00  1.0784185847123526e+00 1.6034000307342177e-05 0.0000000000000000e+00  1.0784114770558615e+00 1.7334615024164213e-05 0.0000000000000000e+00  1.2724300011529741e+00 -1.1618336595033975e-01 0.0000000000000000e+00  1.0783188141216249e+00 -1.2956377690317685e-05 0.0000000000000000e+00  1.0783226359840374e+00 5.4358440303373160e-06 0.0000000000000000e+00  1.0779290152725991e+00 -3.8675838952215570e-04 0.0000000000000000e+00  1.0470460033125513e+00 5.4170276249344406e-04 0.0000000000000000e+00  1.0781088685677587e+00 -1.6256228437396571e-05 0.0000000000000000e+00  1.0598771084006853e+00 -5.6108695258543242e-02 0.0000000000000000e+00  1.0722211560894979e+00 -2.5548894422450360e-04 0.0000000000000000e+00  7.3992818482447786e-01 -6.8857305448968564e-02 0.0000000000000000e+00  1.3537774793221109e+00 -8.6119858302214539e-02 0.0000000000000000e+00  1.0697417633128781e+00 6.5025124975702996e-04 0.0000000000000000e+00  1.0586799067709414e+00 -1.4380280964158888e-04 0.0000000000000000e+00  1.5407564471356883e+00 4.5144189986561528e-01 0.0000000000000000e+00  1.0028109114736141e+00 1.6706603865153508e-01 0.0000000000000000e+00  1.0683426623508065e+00 1.3966557174704692e-04 0.0000000000000000e+00  1.8800625979241534e+00 1.9479451072719542e-01 0.0000000000000000e+00  1.4913402542725176e+00 -4.9963199575724326e-01 0.0000000000000000e+00  9.8803736533082331e-01 -1.7143562666007608e-01 0.0000000000000000e+00  1.0670238395297518e+00 -8.6826724722264723e-04 0.0000000000000000e+00  1.0701344243507396e+00 -4.1155839314068094e-04 0.0000000000000000e+00  1.0657603637258770e+00 6.3186175251887442e-04 0.0000000000000000e+00  1.0723481470136966e+00 8.0787031874621497e-06 0.0000000000000000e+00  1.0783122384805890e+00 9.4046170470216021e-06 0.0000000000000000e+00  1.0573913939063087e+00 -7.5683725276594910e-03 0.0000000000000000e+00  1.4062434081801962e+00 1.1133528965378117e-06 0.0000000000000000e+00  1.0786950871135930e+00 -1.4868326900091411e-04 0.0000000000000000e+00  1.0688396447941479e+00 3.8317307038869982e-05 0.0000000000000000e+00  1.4062425412066391e+00 5.5028932817757981e-07 0.0000000000000000e+00  1.0707711521440062e+00 -1.5018144808326512e-04 0.0000000000000000e+00  1.0781617669967223e+00 -1.3917859430380634e-04 0.0000000000000000e+00  1.1690459131235467e+00 9.6137867893266948e-02 0.0000000000000000e+00  1.0781143360158743e+00 -7.0193081887354748e-06 0.0000000000000000e+00  7.2417796894402342e-01 6.6173884505871264e-02 0.0000000000000000e+00  1.0784586152018427e+00 3.8555284769294069e-05 0.0000000000000000e+00  1.0668999834315740e+00 7.1764484342721634e-04 0.0000000000000000e+00  1.0641899278973626e+00 4.0265689198519002e-04 0.0000000000000000e+00  1.0276359556829395e+00 3.3581321517656376e-04 0.0000000000000000e+00  1.0783659963578216e+00 -9.7615518534477204e-05 0.0000000000000000e+00  1.0292020536266175e+00 -1.1163023456932876e-04 0.0000000000000000e+00  1.05975387518