<?xml version="1.0"?>
<VTKFile type="UnstructuredGrid"  version="0.1"  >
<UnstructuredGrid>
<Piece  NumberOfPoints="2446" NumberOfCells="4585">
<Points>
<DataArray  type="Float64"  NumberOfComponents="3"  format="ascii">0 0.41 0  0 0 0  2.2 0 0  2.2 0.41 0  0.2404508497187474 0.2293892626146237 0  0.25 0.2 0  0.2404508497187474 0.1706107373853764 0  0.2154508497187474 0.1524471741852423 0  0.1845491502812526 0.1524471741852423 0  0.1595491502812526 0.1706107373853764 0  0.15 0.2 0  0.1595491502812526 0.2293892626146237 0  0.1845491502812527 0.2475528258147577 0  0.2154508497187474 0.2475528258147577 0  1.1 0 0  1.1 0.41 0  0 0.205 0  0.55 0 0  0.55 0.41 0  0.275 0 0  0.275 0.41 0  1.65 0.41 0  1.65 0 0  0.8250000000000001 0.41 0  0.8250000000000001 0 0  1.375 0 0  1.375 0.41 0  1.925 0 0  1.925 0.41 0  1.5125 0.205 0  1.7875 0.205 0  0.6875 0.205 0  0.9625000000000001 0.205 0  1.2375 0.205 0  2.2 0.205 0  0.4687002074688797 0.2068568464730291 0  1.99375 0.2152743902439024 0  2.0625 0 0  2.0625 0.41 0  2.2 0.3075 0  0.4125 0 0  0.4125 0.41 0  1.7875 0.41 0  1.375 0.1486128048780488 0  1.5125 0 0  1.7875 0 0  1.5125 0.41 0  0.8250000000000001 0.2613871951219511 0  0.9625000000000001 0.41 0  0.9625000000000001 0 0  0.6875 0.41 0  0.6875 0 0  0.1375 0 0  0.1375 0.41 0  1.2375 0 0  1.1 0.1486128048780487 0  1.2375 0.41 0  1.65 0.1486128048780487 0  1.126715909090909 0.2793064024390244 0  1.676715909090909 0.2793064024390244 0  0.8517159090909092 0.1306935975609756 0  1.348284090909091 0.2793064024390244 0  0.34375 0.3032389320646208 0  1.894702181800738 0.1282910975492754 0  2.092797818199262 0.1282910975492754 0  1.85625 0.3075 0  0.61875 0.3075 0  0.61875 0.1025 0  0.3648540804333487 0.1240075933101478 0  0 0.3075 0  0 0.1025 0  2.099172119769978 0.25625 0  0.48125 0.09238439620688085 0  0.5781001037344399 0.2059284232365146 0  0.48125 0.3196743479159776 0  0.7265881057911006 0.3055240343720796 0  1.99375 0.08395950269330846 0  1.459960956013612 0.3075 0  1.569025960719943 0.2986889805672169 0  0.75625 0.08213100772579164 0  1.03125 0.3278689922742084 0  0.923871252904788 0.3078247185783941 0  1.959375 0.3126371951219512 0  1.749222215368287 0.1025 0  1.275777784631713 0.1025 0  2.2 0.1025 0  1.225938124459196 0.3075 0  1.550777784631713 0.1025 0  1.000777784631713 0.1025 0  1.44375 0.07430640243902442 0  1.16875 0.07430640243902437 0  1.899250267340833 0.2229966846119207 0  0.1020898364287272 0.3140258291809757 0  1.766482954545455 0.2934032012195123 0  0.3405058858996321 0.2119987970531874 0  0.7710785630958338 0.1710968191298857 0  1.046078563095834 0.2389031808701144 0  0.2 0.3400647632937836 0  1.421109702350723 0.2261157654379721 0  0.2800464974185557 0.08982544815605742 0  0.098916018031319 0.09171660955420841 0  2.13125 0 0  2.118919042110979 0.3422084711244843 0  1.30625 0.41 0  0.89375 0 0  1.597888256393107 0.2173787389261347 0  0.20625 0 0  1.829299675393195 0.07400700849299596 0  1.71875 0.41 0  1.16875 0.41 0  2.038220665644273 0.332420740103091 0  0.34375 0 0  0.417496017710808 0.2696595573092803 0  0.2 0.07687845740457822 0  0.9295982307099278 0.1343158415898188 0  0.07390688010811153 0.1697064032433452 0  0.5238366813727013 0.2578302467013575 0  0.05452951551825875 0.25625 0  0.5229630068078351 0.1548816096928243 0  1.452769549894695 0.1548122580621249 0  1.369219062229598 0.07430640243902442 0  1.30625 0 0  0.8504409521244898 0.3356935975609756 0  0.8821881244591965 0.205 0  1.720943423819132 0.1714577452753128 0  1.157188124459196 0.205 0  1.094219062229598 0.07430640243902437 0  1.03125 0 0  1.304056576180868 0.1714577452753128 0  1.67579304192913 0.07430640243902437 0  0.2751941921308361 0.3346083473122598 0  1.209670467133757 0.1362100266964769 0  1.025335513626278 0.1700681449722324 0  0.7562500000000001 0.41 0  1.58125 0 0  0.7567170593862014 0.2409196493502535 0  0.6926714215682891 0.1272249611432207 0  0.4139715849905988 0.3397932387114203 0  0.9840787304190477 0.2717749043358119 0  0.06875000000000001 0.41 0  0 0.35875 0  0.9281250000000001 0.06276726142697993 0  0.5507396469029935 0.3219409231578227 0  0.5504468037989405 0.09136885600634273 0  1.58125 0.41 0  1.631724228912893 0.3381867502687533 0  1.825608881788174 0.14499488549201 0  1.85625 0 0  1.44375 0 0  1.44375 0.41 0  1.85625 0.41 0  2.13125 0.41 0  0.7562500000000001 0 0  0.89375 0.41 0  0.4812500000000001 0 0  0.34375 0.41 0  0.4812500000000001 0.41 0  0.20625 0.41 0  0.06875000000000001 0 0  1.16875 0 0  0.61875 0 0  0.61875 0.41 0  1.03125 0.41 0  1.71875 0 0  1.99375 0 0  1.99375 0.41 0  1.340625 0.3489494290853124 0  1.134375 0.3489494290853123 0  1.700180620188976 0.3438659752031281 0  2.135782184673599 0.07126652247502523 0  1.668441847249787 0.2129203728327609 0  1.295782514339747 0.2378437748815763 0  0.8233075729931248 0.06842334294821524 0  1.409375 0.3520314716057996 0  0.403505597322782 0.182067236678212 0  0.378125 0.05794951541303489 0  0.3043468223249023 0.1518321115979534 0  2.129248544730567 0.1906135162504124 0  2.060771381434487 0.1989445750470348 0  2.013252586573865 0.1496169464686054 0  1.942766402200229 0.1734448904596831 0  1.895522487186454 0.06076163953489683 0  2.069553871656643 0.06605731020975725 0  1.274680914880868 0.3520219391081363 0  1.614713220494657 0.09473434380863296 0  0.7899021319497519 0.3149123934144827 0  0.69518737419149 0.0634051089053758 0  0.2971740475496061 0.2592172353407536 0  1.72990325744076 0.2380068107952482 0  1.356580098625191 0.2120393231351682 0  2.034370752044885 0.2668681600792073 0  1.51768709249349 0.3426260931494756 0  1.561883724969884 0.1650446847858835 0  1.197344062229598 0.2523725417393646 0  1.804085235518364 0.3468178408964637 0  1.817887819205233 0.2589243285818559 0  1.905897727272727 0.3485060975609756 0  0.6719798073392919 0.2688965171178177 0  0 0.05125 0  0.653125 0.35875 0  0.6396896119294488 0.1627615407790282 0  0.4274150154087412 0.1242548552168279 0  1.192836486056382 0.3562350748565544 0  0.8279124365364005 0.183856489168822 0  1.097485222388854 0.2083571153401724 0  1.28257088594801 0.2944411014911587 0  1.474860187679412 0.2504218616229368 0  1.406767003493824 0.2829282258560709 0  0.446875 0.04619219810344041 0  0.515625 0.04585361801037557 0  0.592043440706648 0.05125 0  1.845656689180403 0.1998310418452388 0  2.144958525570388 0.2909790873294231 0  0.6171090763650112 0.2492366900333857 0  2.2 0.15375 0  0.5145586920831158 0.3648371739579888 0  1.57794966442982 0.3540357145964566 0  0.721875 0.3633107922168974 0  0.0496154796471391 0.333125 0  0.5843750000000001 0.3662560860076676 0  0.5810878747760798 0.1474002776121195 0  1.508991196088596 0.1421783375065625 0  0.8840670607017558 0.2640994375393898 0  0.09776612425612034 0.2204896805326566 0  1.50436820029908 0.06143401634903343 0  1.223857000523521 0.0823554862453532 0  1.153316824384777 0.1289850171317837 0  2.148922302309752 0.1258841779285271 0  0.309375 0.04312325590431198 0  1.621993280276081 0.2841214267927899 0  1.550118654119087 0.2461998729100966 0  1.327182649291491 0.1216967252533594 0  1.051977450479407 0.1221382572915816 0  1.753125 0.04556020050186112 0  1.271875 0.04556020050186116 0  0.9816084133102366 0.05126138213476004 0  1.039051841454368 0.0572224914831029 0  0.9719230514536006 0.3480477870845102 0  1.94956388244759 0.1180512551534177 0  1.949997712993411 0.04965831614304109 0  1.771961817615021 0.1530278789497521 0  1.909246823951428 0.2812757146784527 0  0.2459536687882397 0.04668633953831142 0  1.948575539857022 0.2445328248721197 0  1.697271520964565 0.1233917627620729 0  0.7964897648514618 0.1211426571931604 0  1.065625 0.3689344961371042 0  1.085849084308977 0.3170853572226867 0  0.4702981435440001 0.260434880697798 0  1.577403511714593 0.05463601888079143 0  0.05622663515370135 0.05493816910862376 0  0.3267207591099919 0.3566194660323104 0  0.9003051618565143 0.3564049499960621 0  1.751571320346033 0.3651102912045228 0  0.1583785085108421 0.2994699345738728 0  0.1455283439499995 0.3542795598723423 0  2.2 0.35875 0  0.2347662494194072 0.298325008655211 0  0.1527284455616188 0.1065771775690181 0  0.1382139529076665 0.05427454456341477 0  0.8749341636311069 0.05110114999892954 0  0.643661668713109 0.05693499781019222 0  1.466879772203159 0.3611261772912453 0  1.990280163552011 0.3564754268533217 0  1.17471064520912 0.2990917256188288 0  0.5202693090594349 0.206382495511728 0  0 0.25625 0  2.2 0.25625 0  2.2 0.05125 0  0 0.15375 0  1.853978576207987 0.35875 0  0.9787513713939683 0.1487523696999336 0  0.240625 0.3722153812029779 0  1.515638456102889 0.2882700110184686 0  0.09048297387599738 0.3637717362208066 0  2.150453692751374 0.2387066338105111 0  1.323782677156475 0.04897634338873398 0  0.8074131292871642 0.3624701995505916 0  1.409375 0.03715320121951221 0  1.406484531114799 0.1087852750766809 0  1.134375 0.03715320121951218 0  1.627401732573545 0.04552157221025036 0  0.1170173172005315 0.1427610859166811 0  2.045405893604797 0.1105340662939892 0  1.255408269734577 0.1577307500159216 0  2.028125 0.03707597992059326 0  0.4743610090857199 0.1421513964721819 0  0.9354010469015898 0.250631300585664 0  0.04420832937638274 0.128125 0  0.8922386349349938 0.0992956419364831 0  0.1197849154434487 0.2663398672460083 0  1.248258025468107 0.2565907092181813 0  0.3746885856929528 0.370723531618974 0  1.203125 0.0366132337404304 0  0.5724622277005015 0.2751253816079333 0  0.3365425205162783 0.08395777655057959 0  2.072662025974815 0.2975086504196739 0  0.4581080832182547 0.3648371739579888 0  0.3874522734668214 0.2295447548840689 0  0.7827853612484443 0.04106550386289586 0  1.887722846421017 0.1760882698830035 0  1.472640588990488 0.1118278026240017 0  1.865937103925594 0.2604137786483804 0  1.463913572748262 0.2030442564990043 0  1.376426316059077 0.3186741374914345 0  0.6641993820150034 0.3141688596240831 0  0.2943117490824315 0.2130987422685822 0  0.3478153998082709 0.1666571081082676 0  0.3427990510599805 0.2575950027870776 0  0.7997118993855807 0.2216171933356366 0  
[...]
<PointData  Vectors="f_31"> 
<DataArray  type="Float64"  Name="f_31"  NumberOfComponents="3" format="ascii">1.2303453152369694e-06 2.5768840458613108e-06 0.0000000000000000e+00  1.1416482899551494e-06 -8.5423110455549375e-06 0.0000000000000000e+00  -3.4965925460101987e-07 -9.4581397910162681e-07 0.0000000000000000e+00  -1.7397425749749078e-05 1.5500429525576286e-06 0.0000000000000000e+00  8.7740486560083345e-05 -4.6742719366416222e-05 0.0000000000000000e+00  1.1125070010333572e-04 -2.1807294681578186e-06 0.0000000000000000e+00  1.0215269934367362e-04 2.6226124263893557e-05 0.0000000000000000e+00  1.1994776351298414e-05 -2.6863270394672707e-05 0.0000000000000000e+00  -1.2110975887732614e-05 6.8652217273772927e-06 0.0000000000000000e+00  1.1627147636002526e-04 -5.7475805426871479e-05 0.0000000000000000e+00  -8.3448336746647783e-05 1.4128338600627582e-05 0.0000000000000000e+00  1.3162019035423838e-04 6.9058982255016123e-05 0.0000000000000000e+00  3.3534538764672735e-05 1.4240592285389265e-05 0.0000000000000000e+00  -2.4800698411741749e-06 4.7510868561836544e-06 0.0000000000000000e+00  -2.6526869676771925e-06 -2.6583098209162706e-07 0.0000000000000000e+00  1.8563464241557704e-06 1.0167222381687435e-06 0.0000000000000000e+00  1.5000030671641620e+00 4.9579393822862956e-07 0.0000000000000000e+00  -1.2076314544177276e-05 2.7488177163025461e-07 0.0000000000000000e+00  1.1037318661433242e-06 -4.6236773747446929e-07 0.0000000000000000e+00  1.1130911036038991e-05 4.0974123422909897e-06 0.0000000000000000e+00  3.5103796773118193e-06 -1.5892534564704348e-06 0.0000000000000000e+00  -1.3893764123926389e-06 -4.2424087490351780e-07 0.0000000000000000e+00  -2.9164244296926012e-06 6.7485041309451300e-07 0.0000000000000000e+00  1.4463647607726384e-06 5.3594850324160810e-07 0.0000000000000000e+00  -8.4947320248497980e-06 7.4236452649364709e-08 0.0000000000000000e+00  -4.4386499208353981e-06 -6.0496002403254043e-07 0.0000000000000000e+00  -3.9546431454133939e-06 -1.3258976593280994e-06 0.0000000000000000e+00  -5.9613450292539394e-06 -3.2264617700329580e-07 0.0000000000000000e+00  -9.3677397218724318e-06 -5.3444224896624867e-07 0.0000000000000000e+00  1.0566106845635326e+00 -1.0033239819474757e-05 0.0000000000000000e+00  1.0565872738537836e+00 -2.0814161742744165e-05 0.0000000000000000e+00  1.0558517283390767e+00 -7.2597242578122817e-04 0.0000000000000000e+00  1.0565019756581218e+00 -8.5957339658064780e-05 0.0000000000000000e+00  1.0565155352386275e+00 1.9830273001367140e-05 0.0000000000000000e+00  1.0577081523585596e+00 5.6944777897970122e-05 0.0000000000000000e+00  1.0324912095746794e+00 -5.7464172389170521e-03 0.0000000000000000e+00  1.0566011288189074e+00 5.0195609270736262e-05 0.0000000000000000e+00  -2.0989070102848743e-06 -8.3913576262840772e-08 0.0000000000000000e+00  -4.7590164841122638e-06 -6.8493806826724887e-07 0.0000000000000000e+00  1.0574399670140999e+00 -1.5433260605459448e-03 0.0000000000000000e+00  -3.5710423474750921e-06 -1.0482300711040596e-06 0.0000000000000000e+00  -3.4951427328860500e-06 -3.7661686236348486e-07 0.0000000000000000e+00  -9.1421015658732128e-06 -1.1141886156967664e-07 0.0000000000000000e+00  1.0565523624504691e+00 2.9701305281134152e-05 0.0000000000000000e+00  -2.4036500227072206e-06 5.0308292375123870e-08 0.0000000000000000e+00  -5.2345277058455443e-06 -4.2149589789476236e-07 0.0000000000000000e+00  -1.2028015182864813e-07 -4.8777013476055172e-07 0.0000000000000000e+00  1.0565767818250384e+00 -2.5266506757001670e-04 0.0000000000000000e+00  -2.6800875834874051e-06 3.4567213013817410e-07 0.0000000000000000e+00  1.3431443675122250e-07 -1.7537444607263574e-07 0.0000000000000000e+00  -9.2597296888476349e-07 -9.7823062104090684e-07 0.0000000000000000e+00  -1.1244701892331741e-05 2.3555507652437089e-07 0.0000000000000000e+00  -5.3089379066114773e-05 6.0241446108288830e-06 0.0000000000000000e+00  -5.2063677055985664e-05 -3.8885376615060203e-06 0.0000000000000000e+00  -1.0547285307638130e-06 2.3342557359124332e-07 0.0000000000000000e+00  1.0564120107744606e+00 -3.6729963890904668e-05 0.0000000000000000e+00  -4.1958508802532896e-06 4.3616710376169956e-07 0.0000000000000000e+00  1.0566148064167746e+00 -3.0750132767989083e-05 0.0000000000000000e+00  1.0564304980090089e+00 -1.7836914732280305e-05 0.0000000000000000e+00  1.0566280833788906e+00 -4.3822100636336715e-05 0.0000000000000000e+00  1.0565045064210794e+00 -7.6739995299280017e-05 0.0000000000000000e+00  1.0565954730487874e+00 1.6902128340647203e-04 0.0000000000000000e+00  1.1366615415776222e+00 -1.6075698673226424e-01 0.0000000000000000e+00  1.0564718765530001e+00 -1.5090585459625463e-05 0.0000000000000000e+00  1.0566784638312845e+00 3.8297531713307363e-04 0.0000000000000000e+00  1.0565812806880828e+00 2.2376422723554332e-05 0.0000000000000000e+00  1.0576413661294610e+00 -2.4787018596239799e-03 0.0000000000000000e+00  1.0556518249606111e+00 8.8683708659214407e-04 0.0000000000000000e+00  1.0471648882471947e+00 1.3555658183954133e-01 0.0000000000000000e+00  1.1249972301453863e+00 5.7839580979321258e-06 0.0000000000000000e+00  1.1249879679715340e+00 -4.6751281963076116e-06 0.0000000000000000e+00  1.0566333188098882e+00 -9.5743002649810853e-05 0.0000000000000000e+00  1.0596322281297408e+00 1.5538958442538376e-02 0.0000000000000000e+00  1.0527715977396199e+00 -1.8253989627354708e-03 0.0000000000000000e+00  1.0665094889134012e+00 -1.9110288187555596e-02 0.0000000000000000e+00  1.0569265357576709e+00 -7.3159526421764920e-04 0.0000000000000000e+00  1.0566132564740938e+00 3.4496675880933854e-04 0.0000000000000000e+00  1.0562644895708466e+00 -6.1178692810116604e-07 0.0000000000000000e+00  1.0563383854440302e+00 4.7861394254524543e-05 0.0000000000000000e+00  1.0560769779234587e+00 -8.4025775465301411e-05 0.0000000000000000e+00  1.0556141707177598e+00 4.5271878551376615e-05 0.0000000000000000e+00  1.0567477087808113e+00 -1.0176434478273150e-04 0.0000000000000000e+00  1.0565860888947007e+00 -2.0742693808969393e-04 0.0000000000000000e+00  1.0564356121792640e+00 -2.2854979816409291e-04 0.0000000000000000e+00  1.0568059176594549e+00 1.7438171512682680e-04 0.0000000000000000e+00  1.0575572475067156e+00 1.5928427689927398e-03 0.0000000000000000e+00  1.0568040048598466e+00 -1.8401107776985898e-04 0.0000000000000000e+00  1.0564708499382214e+00 -1.8697507902083968e-04 0.0000000000000000e+00  1.0565357158082380e+00 -7.9389158630163091e-05 0.0000000000000000e+00  1.0563594398070941e+00 3.2713136219801500e-04 0.0000000000000000e+00  1.0562324055220458e+00 -1.1232469476502565e-05 0.0000000000000000e+00  1.0564913545678176e+00 -5.0299817235529245e-06 0.0000000000000000e+00  1.1763303972181340e+00 3.1352503966544515e-01 0.0000000000000000e+00  1.0564310505978187e+00 5.2104097100002200e-05 0.0000000000000000e+00  7.9180260944682168e-01 -8.4434942678299540e-02 0.0000000000000000e+00  1.0562767587670221e+00 -2.3859406910038626e-04 0.0000000000000000e+00  1.0565329121087099e+00 -3.2258900511067619e-05 0.0000000000000000e+00  1.3313345417381168e+00 1.5511600367787978e-01 0.0000000000000000e+00  1.0565440639101036e+00 7.3337284625166080e-05 0.0000000000000000e+00  1.3422914909491597e+00 1.8137812474449833e-01 0.0000000000000000e+00  1.1490558457864131e+00 -2.9830339956184515e-01 0.0000000000000000e+00  -1.1533037758257786e-06 3.2827556931308603e-07 0.0000000000000000e+00  1.0550659532879203e+00 -1.0479361654142138e-04 0.0000000000000000e+00  -5.2413178285809375e-06 -2.3910651769482943e-07 0.0000000000000000e+00  -9.2310519668120861e-06 -1.3534440705925283e-07 0.0000000000000000e+00  1.0565947946618048e+00 -4.2209366902466873e-05 0.0000000000000000e+00  1.0427615017956857e-05 -8.0197700660427746e-07 0.0000000000000000e+00  1.0562007460460292e+00 6.3154818955772364e-05 0.0000000000000000e+00  -6.8597081270332851e-06 -2.3326910144606109e-07 0.0000000000000000e+00  -2.9279319096035279e-06 -4.8274498122258709e-07 0.0000000000000000e+00  1.0562019298289009e+00 7.3999220247331066e-04 0.0000000000000000e+00  -1.8103835195042181e-06 -1.0756348189893910e-06 0.0000000000000000e+00  1.0399187863399519e+00 -5.7783925676960758e-02 0.0000000000000000e+00  1.4087706501791348e+00 -1.5868854224947918e-01 0.0000000000000000e+00  1.0564590819476913e+00 -1.3495204665026260e-04 0.0000000000000000e+00  1.3450642711704686e+00 -1.1403077675567391e-01 0.0000000000000000e+00  1.0520446830156784e+00 -9.7856277653760749e-03 0.0000000000000000e+00  1.3759576111363061e+00 1.1580147938760897e-01 0.0000000000000000e+00  1.0491130200937078e+00 4.5710310778481322e-03 0.0000000000000000e+00  1.0564660863635644e+00 3.9980951755771064e-05 0.0000000000000000e+00  1.0557360763936021e+00 -9.6021225933377700e-04 0.0000000000000000e+00  -2.3746100083668796e-06 4.9113091382727596e-07 0.0000000000000000e+00  1.0562929962179690e+00 1.3729660740070975e-04 0.0000000000000000e+00  1.0565851536822051e+00 -1.0784352076101228e-04 0.0000000000000000e+00  1.0564912844702385e+00 2.5075901608955768e-05 0.0000000000000000e+00  1.0564078351335906e+00 2.1165794532936796e-05 0.0000000000000000e+00  1.0563637449766536e+00 -8.7676632684628326e-05 0.0000000000000000e+00  -4.8270568349252749e-06 -7.4546531893302275e-07 0.0000000000000000e+00  1.0566107449676179e+00 8.2509284114661274e-05 0.0000000000000000e+00  1.0562276187044850e+00 5.1714375717465088e-05 0.0000000000000000e+00  1.3313567856576736e+00 -9.3259989428518125e-02 0.0000000000000000e+00  1.0564913373848992e+00 1.1705407144533474e-04 0.0000000000000000e+00  1.0564841272641230e+00 -5.9619688131799311e-05 0.0000000000000000e+00  -3.5291684290679530e-06 -1.6636686171331913e-10 0.0000000000000000e+00  -1.6992887051311910e-05 7.0740628242339791e-07 0.0000000000000000e+00  1.0565494332728242e+00 -5.2995435388062642e-04 0.0000000000000000e+00  1.0560567373923275e+00 -7.2829296485581437e-05 0.0000000000000000e+00  1.0996607892528083e+00 -3.9898764010959195e-02 0.0000000000000000e+00  1.0565935861180147e+00 -2.9605890662981687e-05 0.0000000000000000e+00  4.1989267947317892e-05 2.0560177579366837e-05 0.0000000000000000e+00  6.5624773527426694e-01 1.2041623826020589e-05 0.0000000000000000e+00  1.0555486180087856e+00 -8.7041130108894547e-05 0.0000000000000000e+00  1.0606486186876380e+00 -6.6666877376021852e-03 0.0000000000000000e+00  1.0567192410165924e+00 4.1247248825581721e-03 0.0000000000000000e+00  -1.0425836113509323e-05 5.9431963679238624e-07 0.0000000000000000e+00  1.0553806669349568e+00 -5.3399780688303413e-05 0.0000000000000000e+00  1.0564444500953367e+00 -5.7264882428996559e-05 0.0000000000000000e+00  -4.0974249304588313e-06 -2.3771660407717302e-07 0.0000000000000000e+00  -1.2180662843219801e-05 6.6235950979534888e-07 0.0000000000000000e+00  -1.1528695586339574e-05 -8.6856749083116985e-08 0.0000000000000000e+00  -2.1661471891017332e-07 -5.5972779415826677e-07 0.0000000000000000e+00  -5.5438610037060736e-06 1.7936115600465193e-07 0.0000000000000000e+00  -6.0742048882773340e-07 -2.1747841668143031e-07 0.0000000000000000e+00  -2.0252330002240766e-06 -4.0641080913791721e-07 0.0000000000000000e+00  -6.9974277257289422e-07 -5.9270987871200221e-08 0.0000000000000000e+00  2.8523991951017445e-06 -1.8051962535186880e-06 0.0000000000000000e+00  -1.2159737023868737e-05 -5.2850472316030817e-08 0.0000000000000000e+00  -7.9618974024653545e-07 -1.3613892687230958e-06 0.0000000000000000e+00  2.5302882656437709e-05 -1.1234733273132902e-07 0.0000000000000000e+00  3.9104476766524403e-07 -4.5392506967619889e-07 0.0000000000000000e+00  -1.0387345069039383e-05 2.5664068987508018e-07 0.0000000000000000e+00  -8.9131450631566782e-06 -4.2210151833150117e-07 0.0000000000000000e+00  -3.2548970595001632e-06 -1.0294931298672171e-06 0.0000000000000000e+00  -1.2098918777815430e-05 1.1286513547607099e-07 0.0000000000000000e+00  -3.2851152992191476e-06 4.4301247289734492e-07 0.0000000000000000e+00  7.5752354368387440e-07 -7.0802808350441135e-09 0.0000000000000000e+00  1.0537045735007675e+00 1.0126428019400114e-03 0.0000000000000000e+00  1.0546989284377262e+00 1.1812844200171102e-03 0.0000000000000000e+00  1.0566025247273692e+00 3.4120831992639637e-04 0.0000000000000000e+00  1.0558403283208482e+00 1.1020668363907402e-03 0.0000000000000000e+00  1.0565336608801126e+00 1.4185569979210101e-06 0.0000000000000000e+00  1.0565998237342134e+00 5.8052550674572625e-05 0.0000000000000000e+00  1.0555122078334502e+00 -1.9621188175511238e-04 0.0000000000000000e+00  1.0540679198661991e+00 7.9159071459000230e-04 0.0000000000000000e+00  9.8227327865388336e-01 2.2496887567992584e-02 0.0000000000000000e+00  1.1252132391448457e+00 5.0598610073359973e-02 0.0000000000000000e+00  9.9776205392609685e-01 5.1562638188410759e-01 0.0000000000000000e+00  1.0569779855598362e+00 2.2281937655794403e-04 0.0000000000000000e+00  1.0567387548820568e+00 1.3181279826075674e-04 0.0000000000000000e+00  1.0566291995332187e+00 1.4425007031611836e-04 0.0000000000000000e+00  1.0565104041389142e+00 5.0478713474504473e-05 0.0000000000000000e+00  1.0547603556627967e+00 -5.2561669393972330e-04 0.0000000000000000e+00  1.0551791186422801e+00 -3.1408115468194213e-04 0.0000000000000000e+00  1.0563757520281289e+00 5.9609550136969591e-04 0.0000000000000000e+00  1.0562525623386549e+00 -5.4639660503129931e-06 0.0000000000000000e+00  1.0567955298663247e+00 -2.1165299683283297e-04 0.0000000000000000e+00  1.0558172961281973e+00 -4.6144598294507109e-04 0.0000000000000000e+00  1.1475312774329562e+00 -5.1410169539049044e-01 0.0000000000000000e+00  1.0565825859622200e+00 -1.4688721644182212e-05 0.0000000000000000e+00  1.0565615169005045e+00 5.2275533571183388e-05 0.0000000000000000e+00  1.0566338831214219e+00 9.5267059628087740e-05 0.0000000000000000e+00  1.0560701761551292e+00 -1.9290747046447565e-04 0.0000000000000000e+00  1.0565745225072749e+00 -4.6638061481318161e-05 0.0000000000000000e+00  1.0565810012765822e+00 -5.0436440088264187e-05 0.0000000000000000e+00  1.0554520570525481e+00 -6.0205752001205699e-04 0.0000000000000000e+00  1.0565325295757444e+00 -7.5503433382517219e-06 0.0000000000000000e+00  1.0553788133802691e+00 7.0580405499978205e-04 0.0000000000000000e+00  1.0565093599100759e+00 -1.3712421864968210e-03 0.0000000000000000e+00  6.5624308447070345e-01 -1.2227906224319785e-05 0.0000000000000000e+00  1.0542715944910781e+00 4.2252125947767950e-04 0.0000000000000000e+00  1.0552056202687305e+00 -1.1763383628641287e-04 0.0000000000000000e+00  1.0445762194401675e+00 4.3174760699579311e-02 0.0000000000000000e+00  1.0558727962337344e+00 -5.5510964641967346e-04 0.0000000000000000e+00  1.0563927897288923e+00 -1.4735868526161825e-04 0.0000000000000000e+00  1.0564088904112567e+00 -3.8368169761368993e-05 0.0000000000000000e+00  1.0568267627177110e+00 9.5162322926841458e-05 0.0000000000000000e+00  1.0564916716058772e+00 3.0750839083159544e-05 0.0000000000000000e+00  1.0564113750534485e+00 8.3869218542091480e-05 0.0000000000000000e+00  1.0738429368403588e+00 1.1008411428114925e-02 0.0000000000000000e+00  1.0602257306437912e+00 2.7061617674957335e-03 0.0000000000000000e+00  1.0526206716873758e+00 3.6364106256102217e-04 0.0000000000000000e+00  1.0565042863566634e+00 -1.8061301574976812e-05 0.0000000000000000e+00  1.0566650364547454e+00 -6.5409164982517369e-04 0.0000000000000000e+00  1.0555006929186219e+00 -2.4705654911504732e-03 0.0000000000000000e+00  1.0575811240334032e+00 7.0102290061407023e-04 0.0000000000000000e+00  1.0649572830080216e+00 -6.2745376482962857e-03 0.0000000000000000e+00  1.0548870692105561e+00 1.3574999452806665e-03 0.0000000000000000e+00  1.0499695493194618e+00 -5.0693385664155196e-04 0.0000000000000000e+00  9.5782022262750344e-01 5.5887598754921615e-02 0.0000000000000000e+00  1.0560659220597932e+00 4.0192195739679921e-05 0.0000000000000000e+00  1.0538533358675057e+00 1.3475981206255518e-03 0.0000000000000000e+00  1.0565625395160758e+00 -4.1555185238635169e-06 0.0000000000000000e+00  1.0565223077499588e+00 -1.2562064587904291e-04 0.0000000000000000e+00  1.2295093163945985e+00 1.5314141809146228e-01 0.0000000000000000e+00  1.0569415236994293e+00 -2.0301961541665622e-04 0.0000000000000000e+00  1.0562850614422412e+00 3.0616726940207144e-04 0.0000000000000000e+00  1.0564996751187141e+00 4.1236050263085987e-05 0.0000000000000000e+00  1.0569621380786256e+00 7.5786745305634283e-04 0.0000000000000000e+00  1.2500387906336012e+00 6.4192159876183999e-02 0.0000000000000000e+00  1.0564450507046745e+00 -1.2521631939268910e-04 0.0000000000000000e+00  1.0564297836043064e+00 -3.1317535159268325e-05 0.0000000000000000e+00  1.0567048509501495e+00 3.5091710932761330e-05 0.0000000000000000e+00  1.0564129330241283e+00 -7.4633973012354813e-05 0.0000000000000000e+00  1.0491296377529227e+00 1.2646051483651054e-03 0.0000000000000000e+00  1.0516496366561463e+00 3.2730709716689660e-05 0.0000000000000000e+00  1.0559938074514827e+00 7.5357888113297127e-05 0.0000000000000000e+00  1.0560572440448457e+00 -5.5620084209321045e-04 0.0000000000000000e+00  1.0558229989039121e+00 7.6289451161586834e-04 0.0000000000000000e+00  1.0565192655666360e+00 1.0084208719663210e-04 0.0000000000000000e+00  1.0473819140098821e+00 -1.4222088882166761e-03 0.0000000000000000e+00  1.0565284749925865e+00 -2.5423547085339210e-05 0.0000000000000000e+00  1.0565765680961143e+00 -3.3358181783682415e-05 0.0000000000000000e+00  1.3356349764581157e+00 2.3376621109945969e-02 0.0000000000000000e+00  1.0566022976821470e+00 -3.6221437432241590e-05 0.0000000000000000e+00  1.0566866643297843e+00 -3.5884944535453626e-05 0.0000000000000000e+00  1.0563262184812618e+00 -3.2976873427117975e-05 0.0000000000000000e+00  1.0512895679500978e+00 -2.7924132470088948e-03 0.0000000000000000e+00  1.0566883223438290e+00 3.2636734509365741e-05 0.0000000000000000e+00  1.0457113184818143e+00 -2.2689474310992521e-02 0.0000000000000000e+00  1.0533095663470877e+00 -1.6929348334090530e-03 0.0000000000000000e+00  7.5395737728700341e-01 -4.0450259947242578e-02 0.0000000000000000e+00  1.2168433781991594e+00 -7.0836648092242743e-02 0.0000000000000000e+00  1.0519879802685039e+00 7.4946655189859856e-05 0.0000000000000000e+00  1.0466841603611035e+00 9.5848871114504158e-04 0.0000000000000000e+00  1.3597226143918724e+00 5.3628348526679070e-01 0.0000000000000000e+00  1.0331151353890948e+00 2.8600923941436701e-01 0.0000000000000000e+00  1.0528630471009326e+00 -2.7435362989465906e-03 0.0000000000000000e+00  1.5696325838657526e+00 -4.5819155891944616e-02 0.0000000000000000e+00  1.3260866761476249e+00 -6.1095758760619456e-01 0.0000000000000000e+00  1.0012972239354481e+00 -3.0812571394257005e-01 0.0000000000000000e+00  1.0507418644921500e+00 -1.8054021142694364e-03 0.0000000000000000e+00  1.0523942326841482e+00 -6.5079677108305112e-05 0.0000000000000000e+00  1.0497528047401088e+00 -1.2589705171373616e-04 0.0000000000000000e+00  1.0570925504610205e+00 -5.5190003719267616e-04 0.0000000000000000e+00  1.0564274751250915e+00 -2.5110458067076222e-04 0.0000000000000000e+00  1.0466590975035421e+00 -3.2357507706757007e-03 0.0000000000000000e+00  1.4062431142233820e+00 2.0324691231958170e-06 0.0000000000000000e+00  1.0577048449530093e+00 -4.5450085550137025e-04 0.0000000000000000e+00  1.0518029381575777e+00 2.3503773264383276e-03 0.0000000000000000e+00  1.4062421164345200e+00 -1.2763890668343833e-06 0.0000000000000000e+00  1.0562937591781714e+00 1.6188986325943762e-04 0.0000000000000000e+00  1.0563945807212365e+00 -7.0731728899157121e-05 0.0000000000000000e+00  1.2950251335872587e+00 -4.3833923360689590e-03 0.0000000000000000e+00  1.0564761595779890e+00 -1.7813165947699206e-05 0.0000000000000000e+00  6.0469955162786260e-01 3.1123995868340049e-01 0.0000000000000000e+00  1.0570897095279048e+00 -1.6779726147362134e-04 0.0000000000000000e+00  1.0531961527926326e+00 -4.9496144289580625e-05 0.0000000000000000e+00  1.0507157794497506e+00 3.9524532697360744e-04 0.0000000000000000e+00  1.0451529648808175e+00 2.6351640578561983e-04 0.0000000000000000e+00  1.0563802833045592e+00 -9.4808286875987135e-05 0.0000000000000000e+00  1.0482301331481481e+00 -1.4334172921419805e-03 0.0000000000000000e+00  1.0508