<?xml version="1.0"?>
<VTKFile type="UnstructuredGrid"  version="0.1"  >
<UnstructuredGrid>
<Piece  NumberOfPoints="2446" NumberOfCells="4585">
<Points>
<DataArray  type="Float64"  NumberOfComponents="3"  format="ascii">0 0.41 0  0 0 0  2.2 0 0  2.2 0.41 0  0.2404508497187474 0.2293892626146237 0  0.25 0.2 0  0.2404508497187474 0.1706107373853764 0  0.2154508497187474 0.1524471741852423 0  0.1845491502812526 0.1524471741852423 0  0.1595491502812526 0.1706107373853764 0  0.15 0.2 0  0.1595491502812526 0.2293892626146237 0  0.1845491502812527 0.2475528258147577 0  0.2154508497187474 0.2475528258147577 0  1.1 0 0  1.1 0.41 0  0 0.205 0  0.55 0 0  0.55 0.41 0  0.275 0 0  0.275 0.41 0  1.65 0.41 0  1.65 0 0  0.8250000000000001 0.41 0  0.8250000000000001 0 0  1.375 0 0  1.375 0.41 0  1.925 0 0  1.925 0.41 0  1.5125 0.205 0  1.7875 0.205 0  0.6875 0.205 0  0.9625000000000001 0.205 0  1.2375 0.205 0  2.2 0.205 0  0.4687002074688797 0.2068568464730291 0  1.99375 0.2152743902439024 0  2.0625 0 0  2.0625 0.41 0  2.2 0.3075 0  0.4125 0 0  0.4125 0.41 0  1.7875 0.41 0  1.375 0.1486128048780488 0  1.5125 0 0  1.7875 0 0  1.5125 0.41 0  0.8250000000000001 0.2613871951219511 0  0.9625000000000001 0.41 0  0.9625000000000001 0 0  0.6875 0.41 0  0.6875 0 0  0.1375 0 0  0.1375 0.41 0  1.2375 0 0  1.1 0.1486128048780487 0  1.2375 0.41 0  1.65 0.1486128048780487 0  1.126715909090909 0.2793064024390244 0  1.676715909090909 0.2793064024390244 0  0.8517159090909092 0.1306935975609756 0  1.348284090909091 0.2793064024390244 0  0.34375 0.3032389320646208 0  1.894702181800738 0.1282910975492754 0  2.092797818199262 0.1282910975492754 0  1.85625 0.3075 0  0.61875 0.3075 0  0.61875 0.1025 0  0.3648540804333487 0.1240075933101478 0  0 0.3075 0  0 0.1025 0  2.099172119769978 0.25625 0  0.48125 0.09238439620688085 0  0.5781001037344399 0.2059284232365146 0  0.48125 0.3196743479159776 0  0.7265881057911006 0.3055240343720796 0  1.99375 0.08395950269330846 0  1.459960956013612 0.3075 0  1.569025960719943 0.2986889805672169 0  0.75625 0.08213100772579164 0  1.03125 0.3278689922742084 0  0.923871252904788 0.3078247185783941 0  1.959375 0.3126371951219512 0  1.749222215368287 0.1025 0  1.275777784631713 0.1025 0  2.2 0.1025 0  1.225938124459196 0.3075 0  1.550777784631713 0.1025 0  1.000777784631713 0.1025 0  1.44375 0.07430640243902442 0  1.16875 0.07430640243902437 0  1.899250267340833 0.2229966846119207 0  0.1020898364287272 0.3140258291809757 0  1.766482954545455 0.2934032012195123 0  0.3405058858996321 0.2119987970531874 0  0.7710785630958338 0.1710968191298857 0  1.046078563095834 0.2389031808701144 0  0.2 0.3400647632937836 0  1.421109702350723 0.2261157654379721 0  0.2800464974185557 0.08982544815605742 0  0.098916018031319 0.09171660955420841 0  2.13125 0 0  2.118919042110979 0.3422084711244843 0  1.30625 0.41 0  0.89375 0 0  1.597888256393107 0.2173787389261347 0  0.20625 0 0  1.829299675393195 0.07400700849299596 0  1.71875 0.41 0  1.16875 0.41 0  2.038220665644273 0.332420740103091 0  0.34375 0 0  0.417496017710808 0.2696595573092803 0  0.2 0.07687845740457822 0  0.9295982307099278 0.1343158415898188 0  0.07390688010811153 0.1697064032433452 0  0.5238366813727013 0.2578302467013575 0  0.05452951551825875 0.25625 0  0.5229630068078351 0.1548816096928243 0  1.452769549894695 0.1548122580621249 0  1.369219062229598 0.07430640243902442 0  1.30625 0 0  0.8504409521244898 0.3356935975609756 0  0.8821881244591965 0.205 0  1.720943423819132 0.1714577452753128 0  1.157188124459196 0.205 0  1.094219062229598 0.07430640243902437 0  1.03125 0 0  1.304056576180868 0.1714577452753128 0  1.67579304192913 0.07430640243902437 0  0.2751941921308361 0.3346083473122598 0  1.209670467133757 0.1362100266964769 0  1.025335513626278 0.1700681449722324 0  0.7562500000000001 0.41 0  1.58125 0 0  0.7567170593862014 0.2409196493502535 0  0.6926714215682891 0.1272249611432207 0  0.4139715849905988 0.3397932387114203 0  0.9840787304190477 0.2717749043358119 0  0.06875000000000001 0.41 0  0 0.35875 0  0.9281250000000001 0.06276726142697993 0  0.5507396469029935 0.3219409231578227 0  0.5504468037989405 0.09136885600634273 0  1.58125 0.41 0  1.631724228912893 0.3381867502687533 0  1.825608881788174 0.14499488549201 0  1.85625 0 0  1.44375 0 0  1.44375 0.41 0  1.85625 0.41 0  2.13125 0.41 0  0.7562500000000001 0 0  0.89375 0.41 0  0.4812500000000001 0 0  0.34375 0.41 0  0.4812500000000001 0.41 0  0.20625 0.41 0  0.06875000000000001 0 0  1.16875 0 0  0.61875 0 0  0.61875 0.41 0  1.03125 0.41 0  1.71875 0 0  1.99375 0 0  1.99375 0.41 0  1.340625 0.3489494290853124 0  1.134375 0.3489494290853123 0  1.700180620188976 0.3438659752031281 0  2.135782184673599 0.07126652247502523 0  1.668441847249787 0.2129203728327609 0  1.295782514339747 0.2378437748815763 0  0.8233075729931248 0.06842334294821524 0  1.409375 0.3520314716057996 0  0.403505597322782 0.182067236678212 0  0.378125 0.05794951541303489 0  0.3043468223249023 0.1518321115979534 0  2.129248544730567 0.1906135162504124 0  2.060771381434487 0.1989445750470348 0  2.013252586573865 0.1496169464686054 0  1.942766402200229 0.1734448904596831 0  1.895522487186454 0.06076163953489683 0  2.069553871656643 0.06605731020975725 0  1.274680914880868 0.3520219391081363 0  1.614713220494657 0.09473434380863296 0  0.7899021319497519 0.3149123934144827 0  0.69518737419149 0.0634051089053758 0  0.2971740475496061 0.2592172353407536 0  1.72990325744076 0.2380068107952482 0  1.356580098625191 0.2120393231351682 0  2.034370752044885 0.2668681600792073 0  1.51768709249349 0.3426260931494756 0  1.561883724969884 0.1650446847858835 0  1.197344062229598 0.2523725417393646 0  1.804085235518364 0.3468178408964637 0  1.817887819205233 0.2589243285818559 0  1.905897727272727 0.3485060975609756 0  0.6719798073392919 0.2688965171178177 0  0 0.05125 0  0.653125 0.35875 0  0.6396896119294488 0.1627615407790282 0  0.4274150154087412 0.1242548552168279 0  1.192836486056382 0.3562350748565544 0  0.8279124365364005 0.183856489168822 0  1.097485222388854 0.2083571153401724 0  1.28257088594801 0.2944411014911587 0  1.474860187679412 0.2504218616229368 0  1.406767003493824 0.2829282258560709 0  0.446875 0.04619219810344041 0  0.515625 0.04585361801037557 0  0.592043440706648 0.05125 0  1.845656689180403 0.1998310418452388 0  2.144958525570388 0.2909790873294231 0  0.6171090763650112 0.2492366900333857 0  2.2 0.15375 0  0.5145586920831158 0.3648371739579888 0  1.57794966442982 0.3540357145964566 0  0.721875 0.3633107922168974 0  0.0496154796471391 0.333125 0  0.5843750000000001 0.3662560860076676 0  0.5810878747760798 0.1474002776121195 0  1.508991196088596 0.1421783375065625 0  0.8840670607017558 0.2640994375393898 0  0.09776612425612034 0.2204896805326566 0  1.50436820029908 0.06143401634903343 0  1.223857000523521 0.0823554862453532 0  1.153316824384777 0.1289850171317837 0  2.148922302309752 0.1258841779285271 0  0.309375 0.04312325590431198 0  1.621993280276081 0.2841214267927899 0  1.550118654119087 0.2461998729100966 0  1.327182649291491 0.1216967252533594 0  1.051977450479407 0.1221382572915816 0  1.753125 0.04556020050186112 0  1.271875 0.04556020050186116 0  0.9816084133102366 0.05126138213476004 0  1.039051841454368 0.0572224914831029 0  0.9719230514536006 0.3480477870845102 0  1.94956388244759 0.1180512551534177 0  1.949997712993411 0.04965831614304109 0  1.771961817615021 0.1530278789497521 0  1.909246823951428 0.2812757146784527 0  0.2459536687882397 0.04668633953831142 0  1.948575539857022 0.2445328248721197 0  1.697271520964565 0.1233917627620729 0  0.7964897648514618 0.1211426571931604 0  1.065625 0.3689344961371042 0  1.085849084308977 0.3170853572226867 0  0.4702981435440001 0.260434880697798 0  1.577403511714593 0.05463601888079143 0  0.05622663515370135 0.05493816910862376 0  0.3267207591099919 0.3566194660323104 0  0.9003051618565143 0.3564049499960621 0  1.751571320346033 0.3651102912045228 0  0.1583785085108421 0.2994699345738728 0  0.1455283439499995 0.3542795598723423 0  2.2 0.35875 0  0.2347662494194072 0.298325008655211 0  0.1527284455616188 0.1065771775690181 0  0.1382139529076665 0.05427454456341477 0  0.8749341636311069 0.05110114999892954 0  0.643661668713109 0.05693499781019222 0  1.466879772203159 0.3611261772912453 0  1.990280163552011 0.3564754268533217 0  1.17471064520912 0.2990917256188288 0  0.5202693090594349 0.206382495511728 0  0 0.25625 0  2.2 0.25625 0  2.2 0.05125 0  0 0.15375 0  1.853978576207987 0.35875 0  0.9787513713939683 0.1487523696999336 0  0.240625 0.3722153812029779 0  1.515638456102889 0.2882700110184686 0  0.09048297387599738 0.3637717362208066 0  2.150453692751374 0.2387066338105111 0  1.323782677156475 0.04897634338873398 0  0.8074131292871642 0.3624701995505916 0  1.409375 0.03715320121951221 0  1.406484531114799 0.1087852750766809 0  1.134375 0.03715320121951218 0  1.627401732573545 0.04552157221025036 0  0.1170173172005315 0.1427610859166811 0  2.045405893604797 0.1105340662939892 0  1.255408269734577 0.1577307500159216 0  2.028125 0.03707597992059326 0  0.4743610090857199 0.1421513964721819 0  0.9354010469015898 0.250631300585664 0  0.04420832937638274 0.128125 0  0.8922386349349938 0.0992956419364831 0  0.1197849154434487 0.2663398672460083 0  1.248258025468107 0.2565907092181813 0  0.3746885856929528 0.370723531618974 0  1.203125 0.0366132337404304 0  0.5724622277005015 0.2751253816079333 0  0.3365425205162783 0.08395777655057959 0  2.072662025974815 0.2975086504196739 0  0.4581080832182547 0.3648371739579888 0  0.3874522734668214 0.2295447548840689 0  0.7827853612484443 0.04106550386289586 0  1.887722846421017 0.1760882698830035 0  1.472640588990488 0.1118278026240017 0  1.865937103925594 0.2604137786483804 0  1.463913572748262 0.2030442564990043 0  1.376426316059077 0.3186741374914345 0  0.6641993820150034 0.3141688596240831 0  0.2943117490824315 0.2130987422685822 0  0.3478153998082709 0.1666571081082676 0  0.3427990510599805 0.2575950027870776 0  0.7997118993855807 0.2216171933356366 0  
[...]
<PointData  Vectors="f_31"> 
<DataArray  type="Float64"  Name="f_31"  NumberOfComponents="3" format="ascii">2.0848016689350986e-06 2.2071812674510541e-08 0.0000000000000000e+00  -2.3715778862108425e-06 1.9702337386188954e-07 0.0000000000000000e+00  4.1704288684540647e-06 -7.9625772128946361e-08 0.0000000000000000e+00  -1.7488736366204767e-05 -9.9002141570491788e-08 0.0000000000000000e+00  -1.8616306984004195e-05 -5.4061004767635030e-06 0.0000000000000000e+00  1.1346714080650709e-05 4.9209759603903204e-06 0.0000000000000000e+00  1.4796349944326475e-05 2.8260475492728244e-05 0.0000000000000000e+00  -1.5233461002557059e-05 -9.9422366003186225e-06 0.0000000000000000e+00  -1.5761279162911416e-05 -6.9273580990155673e-06 0.0000000000000000e+00  -8.7434969041288812e-06 2.3427012447173017e-06 0.0000000000000000e+00  1.0907225664337422e-06 7.5879883452369240e-06 0.0000000000000000e+00  -7.0505291837639663e-06 -3.6004867645962167e-06 0.0000000000000000e+00  8.2369464996337764e-06 3.7505990058557538e-06 0.0000000000000000e+00  -1.8488671114595730e-05 1.9039472233940528e-06 0.0000000000000000e+00  -2.8758054819726576e-06 -7.7308896568780812e-08 0.0000000000000000e+00  -9.1604582292968196e-07 -1.1287501521565970e-07 0.0000000000000000e+00  1.5000041013231957e+00 1.2371904766387208e-06 0.0000000000000000e+00  -1.0828839782231065e-05 -1.5980660343205601e-07 0.0000000000000000e+00  -7.8207357011781058e-07 6.3607196631184525e-08 0.0000000000000000e+00  4.3331923405970363e-06 5.1992173085779092e-06 0.0000000000000000e+00  -4.7340742054261046e-06 -4.2858724736108449e-06 0.0000000000000000e+00  3.3930054164930796e-07 1.1518638364345772e-07 0.0000000000000000e+00  -7.9418324215828329e-07 -5.1485938562720067e-09 0.0000000000000000e+00  1.4277519783125706e-06 -6.0325314757972601e-08 0.0000000000000000e+00  -6.5763478841958828e-06 7.7762511992219377e-08 0.0000000000000000e+00  -3.8570588464800440e-06 -4.2258752898040969e-08 0.0000000000000000e+00  -7.5074399114133961e-07 1.8345474669170870e-08 0.0000000000000000e+00  -4.1192331472409668e-06 2.7429986670333213e-08 0.0000000000000000e+00  -3.0176356236303237e-06 -1.8044785678846874e-08 0.0000000000000000e+00  1.0866647176343971e+00 4.3432360550629236e-05 0.0000000000000000e+00  1.0865627726078766e+00 2.2300747925817074e-05 0.0000000000000000e+00  1.0855864198169725e+00 -2.1212685636462299e-03 0.0000000000000000e+00  1.0865124576973020e+00 -1.5558791606327333e-04 0.0000000000000000e+00  1.0863388401625047e+00 -2.5287117667355894e-05 0.0000000000000000e+00  1.0867999433771243e+00 1.1320677858212022e-04 0.0000000000000000e+00  1.0016692025875753e+00 -2.1813249487113225e-02 0.0000000000000000e+00  1.0864591893587665e+00 -7.8326612549098733e-06 0.0000000000000000e+00  -3.7274006831689019e-07 1.0718901661643005e-07 0.0000000000000000e+00  -8.6814557047025609e-07 1.1274442649143052e-07 0.0000000000000000e+00  1.0862037273488718e+00 -1.5757280563086508e-04 0.0000000000000000e+00  -6.3442136143453885e-06 -6.1619676945957864e-07 0.0000000000000000e+00  -5.1652238658300844e-06 4.7010196943608835e-07 0.0000000000000000e+00  -6.8690417344081299e-06 5.1373288709093061e-08 0.0000000000000000e+00  1.0865927871407981e+00 7.7453828087539354e-05 0.0000000000000000e+00  -2.2520144682917090e-06 5.0635142696225536e-08 0.0000000000000000e+00  -4.5113363198340645e-06 -6.6298485254236001e-08 0.0000000000000000e+00  6.1725159269399585e-07 6.3735472244706971e-08 0.0000000000000000e+00  1.0868026569789890e+00 -6.0219987154375610e-04 0.0000000000000000e+00  -3.0773429458446972e-06 -1.1305574602841939e-07 0.0000000000000000e+00  2.7818087853330341e-06 -1.1817506577226913e-07 0.0000000000000000e+00  3.1263972865149756e-06 -6.6928348661846260e-09 0.0000000000000000e+00  -7.2331757354147355e-06 2.7183436610358263e-09 0.0000000000000000e+00  3.9277897957687343e-07 -5.0150092998025927e-06 0.0000000000000000e+00  2.3552009231053158e-06 4.3725690608276294e-06 0.0000000000000000e+00  -5.6774815157448861e-08 9.4582133902945869e-08 0.0000000000000000e+00  1.0863477877828602e+00 -6.9897002077777361e-05 0.0000000000000000e+00  -3.0396429586508684e-06 -1.4133145027526276e-07 0.0000000000000000e+00  1.0865923540923794e+00 -6.2982276293249931e-05 0.0000000000000000e+00  1.0864442320124053e+00 -4.7408734750091292e-05 0.0000000000000000e+00  1.0863857164231294e+00 -8.1251441727874231e-06 0.0000000000000000e+00  1.0862864171739364e+00 -3.7402911426845847e-04 0.0000000000000000e+00  1.0866891656066597e+00 -9.3698953277656885e-06 0.0000000000000000e+00  1.4895076656002633e+00 -2.1581148124348221e-01 0.0000000000000000e+00  1.0865220326248222e+00 -1.1284631650571516e-04 0.0000000000000000e+00  1.0865913240031548e+00 8.1164662589737035e-05 0.0000000000000000e+00  1.0863202165459580e+00 1.3305877571685129e-04 0.0000000000000000e+00  1.0915911051299600e+00 -5.8234574173988375e-03 0.0000000000000000e+00  1.0853972072208509e+00 8.8318806015596043e-04 0.0000000000000000e+00  1.2630302282706112e+00 4.1420704771080502e-01 0.0000000000000000e+00  1.1249988983054771e+00 6.0633510838306335e-07 0.0000000000000000e+00  1.1249900442945358e+00 8.7408158046232955e-07 0.0000000000000000e+00  1.0865344252353299e+00 1.4610008459014763e-05 0.0000000000000000e+00  1.1157282785027494e+00 4.3212996437696737e-02 0.0000000000000000e+00  1.0773630706497153e+00 -5.8656953753553637e-03 0.0000000000000000e+00  1.1387809307139778e+00 -5.1227689858394827e-02 0.0000000000000000e+00  1.0878658247316335e+00 -1.1517708899809053e-03 0.0000000000000000e+00  1.0862736903361958e+00 -5.0155125168531068e-06 0.0000000000000000e+00  1.0863913402581789e+00 1.6514580418806584e-04 0.0000000000000000e+00  1.0861516988230053e+00 6.9156686439450630e-06 0.0000000000000000e+00  1.0854396016855774e+00 -5.3641412384754792e-04 0.0000000000000000e+00  1.0856884236338566e+00 2.6483576724338346e-04 0.0000000000000000e+00  1.0866707913065976e+00 -5.6406139576964348e-05 0.0000000000000000e+00  1.0865169441345761e+00 1.0896191235326193e-04 0.0000000000000000e+00  1.0861350919393604e+00 -5.9490837800330584e-06 0.0000000000000000e+00  1.0864925961267460e+00 -4.2976951966449846e-06 0.0000000000000000e+00  1.0861885385933985e+00 2.6347773715703016e-04 0.0000000000000000e+00  1.0864874940384195e+00 2.5332601613453520e-05 0.0000000000000000e+00  1.0863219005396090e+00 1.1577264655511982e-04 0.0000000000000000e+00  1.0865640466145574e+00 -2.0286053458722829e-04 0.0000000000000000e+00  1.0858809752447851e+00 -2.0469036367165070e-04 0.0000000000000000e+00  1.0855934877172857e+00 2.8027128215207580e-05 0.0000000000000000e+00  1.0864723190012600e+00 -1.2564437713045831e-06 0.0000000000000000e+00  1.1865943801734609e+00 2.4379443293019473e-01 0.0000000000000000e+00  1.0865309504759537e+00 -5.1743934943163703e-05 0.0000000000000000e+00  -1.6600106794665587e-01 -2.1695038351705873e-01 0.0000000000000000e+00  1.0861149602766043e+00 -8.7749580703347363e-04 0.0000000000000000e+00  1.0865500187401926e+00 -4.3003348861040758e-05 0.0000000000000000e+00  1.4041875233641985e+00 2.0508935262742400e-01 0.0000000000000000e+00  1.0865032703050022e+00 3.8567534676240069e-05 0.0000000000000000e+00  1.7987738550054539e+00 2.7146655170539616e-02 0.0000000000000000e+00  1.1451967358281241e+00 -2.4353364233635943e-01 0.0000000000000000e+00  -1.8529642176153724e-07 3.5904612849694297e-08 0.0000000000000000e+00  1.0848417782978343e+00 8.2022807262382101e-04 0.0000000000000000e+00  -2.6416429253169453e-06 -2.5395799010705712e-08 0.0000000000000000e+00  -7.9150773663574556e-06 -1.6102669138358824e-08 0.0000000000000000e+00  1.0866620362774291e+00 -1.3433716143916636e-05 0.0000000000000000e+00  1.9913897054273092e-05 -4.8256339301515944e-06 0.0000000000000000e+00  1.0856720635934318e+00 -2.2260891933044199e-04 0.0000000000000000e+00  -4.6428969163358192e-06 1.1180609674187437e-07 0.0000000000000000e+00  -2.0147159463640306e-06 1.5711488851932295e-07 0.0000000000000000e+00  1.0856465780932014e+00 -1.8580685103356909e-04 0.0000000000000000e+00  -4.8676376721580573e-06 2.1764227454647550e-06 0.0000000000000000e+00  1.0906965729083284e+00 -2.1701607351088584e-01 0.0000000000000000e+00  1.5433406925501203e+00 -2.4612863710563240e-01 0.0000000000000000e+00  1.0864149447014848e+00 -1.6408559627466908e-04 0.0000000000000000e+00  1.3380419270866613e+00 -1.0854409391362604e-01 0.0000000000000000e+00  1.0784559501363200e+00 -3.2304644552276010e-02 0.0000000000000000e+00  1.3734018502131919e+00 1.2329081796576709e-01 0.0000000000000000e+00  1.0673845588075237e+00 1.6158843087909543e-02 0.0000000000000000e+00  1.0864734698577887e+00 2.5525951010389142e-05 0.0000000000000000e+00  1.0851320729465073e+00 -6.0256795165118840e-07 0.0000000000000000e+00  -7.7217323363045572e-07 1.0527845745042617e-07 0.0000000000000000e+00  1.0860045675613326e+00 -9.0665143674452218e-05 0.0000000000000000e+00  1.0864890059457715e+00 -3.3198091715995064e-04 0.0000000000000000e+00  1.0864960953983467e+00 1.9503127408146637e-05 0.0000000000000000e+00  1.0863119199262632e+00 -2.2298918497979628e-05 0.0000000000000000e+00  1.0858678090490186e+00 -1.5628017446579748e-04 0.0000000000000000e+00  -4.3084715008705295e-06 -5.4397963210998018e-08 0.0000000000000000e+00  1.0864785136643100e+00 5.1617636987117855e-05 0.0000000000000000e+00  1.0850238432714268e+00 -2.0565200982078431e-04 0.0000000000000000e+00  1.5361814889979137e+00 6.5913121762233504e-02 0.0000000000000000e+00  1.0864604818991768e+00 1.3747993140985272e-05 0.0000000000000000e+00  1.0864233473913885e+00 -1.2306703030623257e-04 0.0000000000000000e+00  -1.1739046650719794e-06 5.7792321733218035e-09 0.0000000000000000e+00  -1.5518085149792985e-05 2.3302666333053626e-08 0.0000000000000000e+00  1.0867995973436004e+00 -1.2314264078705068e-03 0.0000000000000000e+00  1.0855410115644626e+00 -7.5886680796621701e-04 0.0000000000000000e+00  1.2504229108963176e+00 -9.6657179237550489e-02 0.0000000000000000e+00  1.0866050301114099e+00 -1.0734130228934904e-04 0.0000000000000000e+00  -6.6851055757799650e-06 -2.0502140927163918e-06 0.0000000000000000e+00  6.5625084812558732e-01 3.5262912779288987e-08 0.0000000000000000e+00  1.0821883654742106e+00 6.3761150815154027e-05 0.0000000000000000e+00  1.1037679579000235e+00 -1.4560417010096581e-02 0.0000000000000000e+00  1.0917201948184172e+00 8.4145155502498275e-03 0.0000000000000000e+00  -6.5349179639134555e-06 4.2042762931742408e-08 0.0000000000000000e+00  1.0849633540999410e+00 4.5468421699416755e-04 0.0000000000000000e+00  1.0865923346829283e+00 -2.0581763502355131e-05 0.0000000000000000e+00  -4.2496659775266977e-06 -3.0474070733619207e-08 0.0000000000000000e+00  -1.1506597363599878e-05 -2.3715389932761515e-08 0.0000000000000000e+00  -5.8508988878623982e-06 3.6518767388166427e-08 0.0000000000000000e+00  7.1526999365781135e-07 -3.0152480982353983e-08 0.0000000000000000e+00  -3.6613854535014713e-06 3.9786086437084827e-08 0.0000000000000000e+00  -7.4447389076835393e-07 -4.6366570479532823e-08 0.0000000000000000e+00  2.8084840838547387e-07 8.7849933166610062e-08 0.0000000000000000e+00  -8.6802354834281603e-06 -3.9534328040852434e-07 0.0000000000000000e+00  -2.3328816047525429e-07 -1.9465198436813156e-06 0.0000000000000000e+00  -1.5973281587353116e-05 6.0050476738919135e-07 0.0000000000000000e+00  1.4017935045807334e-05 6.1180240546083144e-06 0.0000000000000000e+00  -3.5001946498746457e-06 1.6105650144178395e-06 0.0000000000000000e+00  -8.7183319692831380e-07 6.4350162584185994e-08 0.0000000000000000e+00  -7.1476241817337291e-06 -4.8220607572416861e-08 0.0000000000000000e+00  -5.7925202233348027e-06 -3.6375905341493833e-08 0.0000000000000000e+00  -6.9998680807339644e-07 5.1522295506557772e-09 0.0000000000000000e+00  -8.7055648553206513e-06 -9.0485435067170516e-08 0.0000000000000000e+00  -2.6382987342128683e-06 2.9536334557903989e-08 0.0000000000000000e+00  -1.0191961687731369e-06 -4.3798542980357892e-08 0.0000000000000000e+00  1.0797361155227920e+00 5.4768016550397298e-04 0.0000000000000000e+00  1.0820152654449426e+00 -2.1145781371781125e-04 0.0000000000000000e+00  1.0831150239487897e+00 -1.7127011729632291e-05 0.0000000000000000e+00  1.0849534836853316e+00 -3.2726236333686915e-04 0.0000000000000000e+00  1.0865767717834593e+00 -4.7112097612174012e-06 0.0000000000000000e+00  1.0864490235014050e+00 -3.8309602322721710e-05 0.0000000000000000e+00  1.0833734187425179e+00 -9.9222930375832781e-04 0.0000000000000000e+00  1.0798932370057424e+00 9.5741579483589912e-04 0.0000000000000000e+00  7.5078777674956354e-01 1.5053814156211065e-01 0.0000000000000000e+00  1.3145585315823491e+00 1.1632875988987430e-01 0.0000000000000000e+00  6.9591657623893610e-01 2.5310650247541333e-01 0.0000000000000000e+00  1.0865753972874643e+00 1.0507247202801254e-04 0.0000000000000000e+00  1.0865918158864882e+00 3.8630333474903861e-05 0.0000000000000000e+00  1.0865222463814972e+00 2.6428504739364601e-05 0.0000000000000000e+00  1.0864608871703421e+00 -2.2264693557440539e-05 0.0000000000000000e+00  1.0810448899653673e+00 -7.1630991529251305e-04 0.0000000000000000e+00  1.0835126446020182e+00 -1.3053592783877338e-04 0.0000000000000000e+00  1.0803109591593052e+00 -9.2447663249952067e-04 0.0000000000000000e+00  1.0862591480958828e+00 -1.4546674169894783e-04 0.0000000000000000e+00  1.0869604097083754e+00 -4.9085543493336233e-04 0.0000000000000000e+00  1.0819269895446748e+00 -5.2604249476794894e-04 0.0000000000000000e+00  1.1093648220835981e+00 -1.1739448202717878e-01 0.0000000000000000e+00  1.0865416235013934e+00 -5.1050411689121855e-06 0.0000000000000000e+00  1.0864456078888598e+00 2.0804655644673149e-07 0.0000000000000000e+00  1.0865573802863873e+00 -2.9193499064079491e-05 0.0000000000000000e+00  1.0835157955887293e+00 2.3761583737206900e-04 0.0000000000000000e+00  1.0865386486566395e+00 8.6494794916055830e-06 0.0000000000000000e+00  1.0864187480506629e+00 -7.7446568954948330e-06 0.0000000000000000e+00  1.0838318719874125e+00 2.1483346051728294e-04 0.0000000000000000e+00  1.0865750191631585e+00 4.8167780206503219e-05 0.0000000000000000e+00  1.0823088878125038e+00 5.1951535452720944e-05 0.0000000000000000e+00  1.0876176854055517e+00 -3.2695926150603741e-03 0.0000000000000000e+00  6.5624841455720773e-01 2.9787614432122264e-07 0.0000000000000000e+00  1.0763186500753721e+00 -4.4149880732416175e-04 0.0000000000000000e+00  1.0838760547937394e+00 -1.0414355779396842e-03 0.0000000000000000e+00  1.0965443425762682e+00 1.5934307332073175e-01 0.0000000000000000e+00  1.0768173899731346e+00 4.1466811561919524e-04 0.0000000000000000e+00  1.0862644431004869e+00 -5.5628901884405518e-04 0.0000000000000000e+00  1.0863510082132524e+00 -6.9069508048522074e-05 0.0000000000000000e+00  1.0865784050652307e+00 -1.7637913815600015e-04 0.0000000000000000e+00  1.0864209745409030e+00 4.9715794974280308e-05 0.0000000000000000e+00  1.0865706055560178e+00 7.9723780836802723e-05 0.0000000000000000e+00  1.1301614908925284e+00 1.7319406128292480e-02 0.0000000000000000e+00  1.0713493942269774e+00 5.6872016461159897e-04 0.0000000000000000e+00  1.0717754945192883e+00 -1.0940164306218578e-03 0.0000000000000000e+00  1.0865036353498392e+00 1.6015388249747359e-05 0.0000000000000000e+00  1.0864880882792789e+00 1.2286982942444027e-04 0.0000000000000000e+00  1.0856006277669108e+00 -6.8936533331693962e-03 0.0000000000000000e+00  1.0865716670562391e+00 3.3365180139766114e-04 0.0000000000000000e+00  1.0845652033254025e+00 -1.5136396494186024e-03 0.0000000000000000e+00  1.0789159039166674e+00 -5.2820769147774425e-04 0.0000000000000000e+00  1.0601268669216950e+00 7.5505997935115744e-04 0.0000000000000000e+00  9.4083219594706513e-01 9.1166034623472253e-02 0.0000000000000000e+00  1.0590683338786906e+00 -5.8654397180524871e-04 0.0000000000000000e+00  1.0807997903996889e+00 3.1826295892735754e-03 0.0000000000000000e+00  1.0864457005502841e+00 4.9165896432417630e-05 0.0000000000000000e+00  1.0866671693049432e+00 -3.0238579775950062e-04 0.0000000000000000e+00  1.2246329675757737e+00 1.6010978865039094e-01 0.0000000000000000e+00  1.0826554795453887e+00 -4.5524732759617614e-04 0.0000000000000000e+00  1.0861946720040008e+00 -2.3676701338616809e-05 0.0000000000000000e+00  1.0864884261582703e+00 -6.7900300964992985e-07 0.0000000000000000e+00  1.0865757927532633e+00 8.6207307043161997e-05 0.0000000000000000e+00  1.3197134852818064e+00 3.3790324895034529e-02 0.0000000000000000e+00  1.0863490401552565e+00 7.8065477422849164e-07 0.0000000000000000e+00  1.0863879157580720e+00 1.8032691897409595e-06 0.0000000000000000e+00  1.0865730505182019e+00 1.3929110191830723e-04 0.0000000000000000e+00  1.0863798600543619e+00 -1.3794878252564101e-04 0.0000000000000000e+00  1.0567822194457153e+00 5.5120036976515009e-04 0.0000000000000000e+00  1.0562191336071125e+00 -3.4017890557428077e-04 0.0000000000000000e+00  1.0743759160109805e+00 -6.9929059260878939e-04 0.0000000000000000e+00  1.0795284716639957e+00 1.0584353972658143e-04 0.0000000000000000e+00  1.0823192288891341e+00 3.8237374021009808e-05 0.0000000000000000e+00  1.0864633745221202e+00 -1.6533594920260583e-05 0.0000000000000000e+00  1.0646311221001705e+00 -1.1066013870335035e-04 0.0000000000000000e+00  1.0866360388092566e+00 2.0139185765021199e-05 0.0000000000000000e+00  1.0865758977700184e+00 1.7787191235954024e-05 0.0000000000000000e+00  1.2179875293152762e+00 -1.0926733782675566e-01 0.0000000000000000e+00  1.0865094583661759e+00 -6.6978552602779901e-06 0.0000000000000000e+00  1.0865064312223782e+00 -4.2951183378149135e-05 0.0000000000000000e+00  1.0860949897593983e+00 -5.7955973645809318e-04 0.0000000000000000e+00  1.0365801573657345e+00 6.2221152574867388e-04 0.0000000000000000e+00  1.0863771262248902e+00 1.2634138495199877e-04 0.0000000000000000e+00  1.0657406625082420e+00 -8.5759809303418505e-02 0.0000000000000000e+00  1.0761067608177035e+00 -1.7372862983306212e-04 0.0000000000000000e+00  7.3697790690450860e-01 -7.6605872283115564e-02 0.0000000000000000e+00  1.3425218293586101e+00 -3.9302077278335103e-02 0.0000000000000000e+00  1.0736250414938326e+00 1.9067810471808802e-04 0.0000000000000000e+00  1.0540978599745423e+00 -8.2782504368818439e-04 0.0000000000000000e+00  1.5360595113972830e+00 4.5076647517971241e-01 0.0000000000000000e+00  1.0162807307933712e+00 1.5462608501685618e-01 0.0000000000000000e+00  1.0702821947818721e+00 -1.8028091580052548e-04 0.0000000000000000e+00  1.9105069457891863e+00 1.9620392274665435e-01 0.0000000000000000e+00  1.4794263040337763e+00 -5.0009056236935856e-01 0.0000000000000000e+00  9.9284189317755611e-01 -1.6941574937524920e-01 0.0000000000000000e+00  1.0692243516074837e+00 -9.8139525359872633e-05 0.0000000000000000e+00  1.0754702842080228e+00 -1.7076215364755093e-03 0.0000000000000000e+00  1.0662346390425554e+00 9.5528285328436147e-04 0.0000000000000000e+00  1.0758710928404744e+00 4.9125697472384908e-04 0.0000000000000000e+00  1.0865334263179547e+00 -4.4028762045928312e-05 0.0000000000000000e+00  1.0571167288432495e+00 -1.1063143330187276e-02 0.0000000000000000e+00  1.4062434930945429e+00 1.0474724872344989e-06 0.0000000000000000e+00  1.0867053266310853e+00 1.4995785916417025e-05 0.0000000000000000e+00  1.0709301064170476e+00 -7.8133553645467113e-04 0.0000000000000000e+00  1.4062427113055567e+00 9.2755957957258160e-07 0.0000000000000000e+00  1.0720791656080635e+00 3.7697086720479074e-04 0.0000000000000000e+00  1.0863750143285744e+00 -1.3241909839514050e-04 0.0000000000000000e+00  1.0336924810636388e+00 1.0241728859132526e-01 0.0000000000000000e+00  1.0863232427746687e+00 4.3462926312758775e-05 0.0000000000000000e+00  7.1721064036156146e-01 8.3559819794007256e-02 0.0000000000000000e+00  1.0865808969470625e+00 7.9608416428430341e-05 0.0000000000000000e+00  1.0662008094323554e+00 2.1493954497083328e-04 0.0000000000000000e+00  1.0627867207809691e+00 -8.3276012457572830e-04 0.0000000000000000e+00  1.0097119113765032e+00 -3.3723119355275885e-04 0.0000000000000000e+00  1.0866357513588440e+00 -3.6652425689185569e-05 0.0000000000000000e+00  1.0118290849855700e+00 -2.7035571527807354e-04 0.0000000000000000e+00  1.0557806196303