<?xml version="1.0"?>
<VTKFile type="UnstructuredGrid"  version="0.1"  >
<UnstructuredGrid>
<Piece  NumberOfPoints="2446" NumberOfCells="4585">
<Points>
<DataArray  type="Float64"  NumberOfComponents="3"  format="ascii">0 0.41 0  0 0 0  2.2 0 0  2.2 0.41 0  0.2404508497187474 0.2293892626146237 0  0.25 0.2 0  0.2404508497187474 0.1706107373853764 0  0.2154508497187474 0.1524471741852423 0  0.1845491502812526 0.1524471741852423 0  0.1595491502812526 0.1706107373853764 0  0.15 0.2 0  0.1595491502812526 0.2293892626146237 0  0.1845491502812527 0.2475528258147577 0  0.2154508497187474 0.2475528258147577 0  1.1 0 0  1.1 0.41 0  0 0.205 0  0.55 0 0  0.55 0.41 0  0.275 0 0  0.275 0.41 0  1.65 0.41 0  1.65 0 0  0.8250000000000001 0.41 0  0.8250000000000001 0 0  1.375 0 0  1.375 0.41 0  1.925 0 0  1.925 0.41 0  1.5125 0.205 0  1.7875 0.205 0  0.6875 0.205 0  0.9625000000000001 0.205 0  1.2375 0.205 0  2.2 0.205 0  0.4687002074688797 0.2068568464730291 0  1.99375 0.2152743902439024 0  2.0625 0 0  2.0625 0.41 0  2.2 0.3075 0  0.4125 0 0  0.4125 0.41 0  1.7875 0.41 0  1.375 0.1486128048780488 0  1.5125 0 0  1.7875 0 0  1.5125 0.41 0  0.8250000000000001 0.2613871951219511 0  0.9625000000000001 0.41 0  0.9625000000000001 0 0  0.6875 0.41 0  0.6875 0 0  0.1375 0 0  0.1375 0.41 0  1.2375 0 0  1.1 0.1486128048780487 0  1.2375 0.41 0  1.65 0.1486128048780487 0  1.126715909090909 0.2793064024390244 0  1.676715909090909 0.2793064024390244 0  0.8517159090909092 0.1306935975609756 0  1.348284090909091 0.2793064024390244 0  0.34375 0.3032389320646208 0  1.894702181800738 0.1282910975492754 0  2.092797818199262 0.1282910975492754 0  1.85625 0.3075 0  0.61875 0.3075 0  0.61875 0.1025 0  0.3648540804333487 0.1240075933101478 0  0 0.3075 0  0 0.1025 0  2.099172119769978 0.25625 0  0.48125 0.09238439620688085 0  0.5781001037344399 0.2059284232365146 0  0.48125 0.3196743479159776 0  0.7265881057911006 0.3055240343720796 0  1.99375 0.08395950269330846 0  1.459960956013612 0.3075 0  1.569025960719943 0.2986889805672169 0  0.75625 0.08213100772579164 0  1.03125 0.3278689922742084 0  0.923871252904788 0.3078247185783941 0  1.959375 0.3126371951219512 0  1.749222215368287 0.1025 0  1.275777784631713 0.1025 0  2.2 0.1025 0  1.225938124459196 0.3075 0  1.550777784631713 0.1025 0  1.000777784631713 0.1025 0  1.44375 0.07430640243902442 0  1.16875 0.07430640243902437 0  1.899250267340833 0.2229966846119207 0  0.1020898364287272 0.3140258291809757 0  1.766482954545455 0.2934032012195123 0  0.3405058858996321 0.2119987970531874 0  0.7710785630958338 0.1710968191298857 0  1.046078563095834 0.2389031808701144 0  0.2 0.3400647632937836 0  1.421109702350723 0.2261157654379721 0  0.2800464974185557 0.08982544815605742 0  0.098916018031319 0.09171660955420841 0  2.13125 0 0  2.118919042110979 0.3422084711244843 0  1.30625 0.41 0  0.89375 0 0  1.597888256393107 0.2173787389261347 0  0.20625 0 0  1.829299675393195 0.07400700849299596 0  1.71875 0.41 0  1.16875 0.41 0  2.038220665644273 0.332420740103091 0  0.34375 0 0  0.417496017710808 0.2696595573092803 0  0.2 0.07687845740457822 0  0.9295982307099278 0.1343158415898188 0  0.07390688010811153 0.1697064032433452 0  0.5238366813727013 0.2578302467013575 0  0.05452951551825875 0.25625 0  0.5229630068078351 0.1548816096928243 0  1.452769549894695 0.1548122580621249 0  1.369219062229598 0.07430640243902442 0  1.30625 0 0  0.8504409521244898 0.3356935975609756 0  0.8821881244591965 0.205 0  1.720943423819132 0.1714577452753128 0  1.157188124459196 0.205 0  1.094219062229598 0.07430640243902437 0  1.03125 0 0  1.304056576180868 0.1714577452753128 0  1.67579304192913 0.07430640243902437 0  0.2751941921308361 0.3346083473122598 0  1.209670467133757 0.1362100266964769 0  1.025335513626278 0.1700681449722324 0  0.7562500000000001 0.41 0  1.58125 0 0  0.7567170593862014 0.2409196493502535 0  0.6926714215682891 0.1272249611432207 0  0.4139715849905988 0.3397932387114203 0  0.9840787304190477 0.2717749043358119 0  0.06875000000000001 0.41 0  0 0.35875 0  0.9281250000000001 0.06276726142697993 0  0.5507396469029935 0.3219409231578227 0  0.5504468037989405 0.09136885600634273 0  1.58125 0.41 0  1.631724228912893 0.3381867502687533 0  1.825608881788174 0.14499488549201 0  1.85625 0 0  1.44375 0 0  1.44375 0.41 0  1.85625 0.41 0  2.13125 0.41 0  0.7562500000000001 0 0  0.89375 0.41 0  0.4812500000000001 0 0  0.34375 0.41 0  0.4812500000000001 0.41 0  0.20625 0.41 0  0.06875000000000001 0 0  1.16875 0 0  0.61875 0 0  0.61875 0.41 0  1.03125 0.41 0  1.71875 0 0  1.99375 0 0  1.99375 0.41 0  1.340625 0.3489494290853124 0  1.134375 0.3489494290853123 0  1.700180620188976 0.3438659752031281 0  2.135782184673599 0.07126652247502523 0  1.668441847249787 0.2129203728327609 0  1.295782514339747 0.2378437748815763 0  0.8233075729931248 0.06842334294821524 0  1.409375 0.3520314716057996 0  0.403505597322782 0.182067236678212 0  0.378125 0.05794951541303489 0  0.3043468223249023 0.1518321115979534 0  2.129248544730567 0.1906135162504124 0  2.060771381434487 0.1989445750470348 0  2.013252586573865 0.1496169464686054 0  1.942766402200229 0.1734448904596831 0  1.895522487186454 0.06076163953489683 0  2.069553871656643 0.06605731020975725 0  1.274680914880868 0.3520219391081363 0  1.614713220494657 0.09473434380863296 0  0.7899021319497519 0.3149123934144827 0  0.69518737419149 0.0634051089053758 0  0.2971740475496061 0.2592172353407536 0  1.72990325744076 0.2380068107952482 0  1.356580098625191 0.2120393231351682 0  2.034370752044885 0.2668681600792073 0  1.51768709249349 0.3426260931494756 0  1.561883724969884 0.1650446847858835 0  1.197344062229598 0.2523725417393646 0  1.804085235518364 0.3468178408964637 0  1.817887819205233 0.2589243285818559 0  1.905897727272727 0.3485060975609756 0  0.6719798073392919 0.2688965171178177 0  0 0.05125 0  0.653125 0.35875 0  0.6396896119294488 0.1627615407790282 0  0.4274150154087412 0.1242548552168279 0  1.192836486056382 0.3562350748565544 0  0.8279124365364005 0.183856489168822 0  1.097485222388854 0.2083571153401724 0  1.28257088594801 0.2944411014911587 0  1.474860187679412 0.2504218616229368 0  1.406767003493824 0.2829282258560709 0  0.446875 0.04619219810344041 0  0.515625 0.04585361801037557 0  0.592043440706648 0.05125 0  1.845656689180403 0.1998310418452388 0  2.144958525570388 0.2909790873294231 0  0.6171090763650112 0.2492366900333857 0  2.2 0.15375 0  0.5145586920831158 0.3648371739579888 0  1.57794966442982 0.3540357145964566 0  0.721875 0.3633107922168974 0  0.0496154796471391 0.333125 0  0.5843750000000001 0.3662560860076676 0  0.5810878747760798 0.1474002776121195 0  1.508991196088596 0.1421783375065625 0  0.8840670607017558 0.2640994375393898 0  0.09776612425612034 0.2204896805326566 0  1.50436820029908 0.06143401634903343 0  1.223857000523521 0.0823554862453532 0  1.153316824384777 0.1289850171317837 0  2.148922302309752 0.1258841779285271 0  0.309375 0.04312325590431198 0  1.621993280276081 0.2841214267927899 0  1.550118654119087 0.2461998729100966 0  1.327182649291491 0.1216967252533594 0  1.051977450479407 0.1221382572915816 0  1.753125 0.04556020050186112 0  1.271875 0.04556020050186116 0  0.9816084133102366 0.05126138213476004 0  1.039051841454368 0.0572224914831029 0  0.9719230514536006 0.3480477870845102 0  1.94956388244759 0.1180512551534177 0  1.949997712993411 0.04965831614304109 0  1.771961817615021 0.1530278789497521 0  1.909246823951428 0.2812757146784527 0  0.2459536687882397 0.04668633953831142 0  1.948575539857022 0.2445328248721197 0  1.697271520964565 0.1233917627620729 0  0.7964897648514618 0.1211426571931604 0  1.065625 0.3689344961371042 0  1.085849084308977 0.3170853572226867 0  0.4702981435440001 0.260434880697798 0  1.577403511714593 0.05463601888079143 0  0.05622663515370135 0.05493816910862376 0  0.3267207591099919 0.3566194660323104 0  0.9003051618565143 0.3564049499960621 0  1.751571320346033 0.3651102912045228 0  0.1583785085108421 0.2994699345738728 0  0.1455283439499995 0.3542795598723423 0  2.2 0.35875 0  0.2347662494194072 0.298325008655211 0  0.1527284455616188 0.1065771775690181 0  0.1382139529076665 0.05427454456341477 0  0.8749341636311069 0.05110114999892954 0  0.643661668713109 0.05693499781019222 0  1.466879772203159 0.3611261772912453 0  1.990280163552011 0.3564754268533217 0  1.17471064520912 0.2990917256188288 0  0.5202693090594349 0.206382495511728 0  0 0.25625 0  2.2 0.25625 0  2.2 0.05125 0  0 0.15375 0  1.853978576207987 0.35875 0  0.9787513713939683 0.1487523696999336 0  0.240625 0.3722153812029779 0  1.515638456102889 0.2882700110184686 0  0.09048297387599738 0.3637717362208066 0  2.150453692751374 0.2387066338105111 0  1.323782677156475 0.04897634338873398 0  0.8074131292871642 0.3624701995505916 0  1.409375 0.03715320121951221 0  1.406484531114799 0.1087852750766809 0  1.134375 0.03715320121951218 0  1.627401732573545 0.04552157221025036 0  0.1170173172005315 0.1427610859166811 0  2.045405893604797 0.1105340662939892 0  1.255408269734577 0.1577307500159216 0  2.028125 0.03707597992059326 0  0.4743610090857199 0.1421513964721819 0  0.9354010469015898 0.250631300585664 0  0.04420832937638274 0.128125 0  0.8922386349349938 0.0992956419364831 0  0.1197849154434487 0.2663398672460083 0  1.248258025468107 0.2565907092181813 0  0.3746885856929528 0.370723531618974 0  1.203125 0.0366132337404304 0  0.5724622277005015 0.2751253816079333 0  0.3365425205162783 0.08395777655057959 0  2.072662025974815 0.2975086504196739 0  0.4581080832182547 0.3648371739579888 0  0.3874522734668214 0.2295447548840689 0  0.7827853612484443 0.04106550386289586 0  1.887722846421017 0.1760882698830035 0  1.472640588990488 0.1118278026240017 0  1.865937103925594 0.2604137786483804 0  1.463913572748262 0.2030442564990043 0  1.376426316059077 0.3186741374914345 0  0.6641993820150034 0.3141688596240831 0  0.2943117490824315 0.2130987422685822 0  0.3478153998082709 0.1666571081082676 0  0.3427990510599805 0.2575950027870776 0  0.7997118993855807 0.2216171933356366 0  
[...]
<PointData  Vectors="f_31"> 
<DataArray  type="Float64"  Name="f_31"  NumberOfComponents="3" format="ascii">2.1777899425567504e-06 4.4842695592320351e-08 0.0000000000000000e+00  -2.2793625768919074e-06 -9.6934332942386278e-09 0.0000000000000000e+00  3.9352448892686896e-06 -6.1941962011006552e-09 0.0000000000000000e+00  -1.6609765140943202e-05 -2.2259446860889418e-08 0.0000000000000000e+00  -4.5926854239677456e-06 -2.5547380694010733e-06 0.0000000000000000e+00  -2.8101026881647238e-06 4.6950414050686987e-06 0.0000000000000000e+00  -2.4401161717686164e-06 7.4477506181167070e-07 0.0000000000000000e+00  -5.5602578704602089e-06 1.1133757525627326e-06 0.0000000000000000e+00  -4.6909741648928341e-06 -7.9101512853571399e-07 0.0000000000000000e+00  -1.3298479781066581e-06 -7.3607196914818153e-07 0.0000000000000000e+00  9.1561082802340444e-07 5.8394366983506101e-06 0.0000000000000000e+00  -7.4226986154016053e-06 -4.1133720216314871e-06 0.0000000000000000e+00  7.4839729595630513e-06 3.9934534466338626e-06 0.0000000000000000e+00  -1.3808479564598807e-05 -5.4676231647358850e-07 0.0000000000000000e+00  -2.5683152433832773e-06 -1.1455936885859797e-08 0.0000000000000000e+00  -1.0406280759461952e-07 -1.8539091285838498e-08 0.0000000000000000e+00  1.5000043127222895e+00 5.7453050650570247e-07 0.0000000000000000e+00  -4.2834257034884306e-06 2.1070175577216708e-06 0.0000000000000000e+00  1.2984683436632763e-06 -6.6749624645287760e-07 0.0000000000000000e+00  3.0556174625833593e-06 2.1079688768288642e-07 0.0000000000000000e+00  -2.3037687976545338e-06 -2.3976313741903442e-07 0.0000000000000000e+00  3.5452253542029167e-07 -3.3360193326447387e-09 0.0000000000000000e+00  1.6175626863891362e-07 8.6833082840981374e-10 0.0000000000000000e+00  1.8411532314132332e-06 -1.4537621170737253e-08 0.0000000000000000e+00  -4.9996799478982555e-06 2.6485071179037494e-08 0.0000000000000000e+00  -3.8468561986075269e-06 -2.1731167865526901e-09 0.0000000000000000e+00  -7.1906502488322814e-07 1.2181553269816667e-09 0.0000000000000000e+00  -2.9836222134936276e-06 5.5401917013633113e-09 0.0000000000000000e+00  -2.2726933766100932e-06 1.4864838134134122e-08 0.0000000000000000e+00  1.1257943809516755e+00 6.5916649808630214e-05 0.0000000000000000e+00  1.1258566833799779e+00 2.2178325298354476e-05 0.0000000000000000e+00  1.1455427430632386e+00 -1.5867531007162036e-02 0.0000000000000000e+00  1.1258654788869193e+00 -8.3178113533638280e-04 0.0000000000000000e+00  1.1254464856135458e+00 -4.2254424318517943e-05 0.0000000000000000e+00  1.1257181920771302e+00 -2.1088284858922453e-05 0.0000000000000000e+00  8.1646283494328620e-02 -8.3267436302229859e-03 0.0000000000000000e+00  1.1256557308433564e+00 -2.6920115286374024e-05 0.0000000000000000e+00  2.2702052030701769e-07 1.2413251654094670e-08 0.0000000000000000e+00  -9.5765606481552377e-07 -3.1038039724600964e-09 0.0000000000000000e+00  1.1248894624869326e+00 2.3469103654482917e-05 0.0000000000000000e+00  3.3371715870291298e-06 -1.3274577795105532e-08 0.0000000000000000e+00  3.7553446535842913e-06 -3.9455664703044445e-09 0.0000000000000000e+00  -6.0867120166396810e-06 3.8136106437064073e-09 0.0000000000000000e+00  1.1256282399633322e+00 5.4899489666411914e-05 0.0000000000000000e+00  -1.9238033385986610e-07 -2.3761711533196697e-08 0.0000000000000000e+00  -4.1731381828849230e-06 1.4506627656775289e-08 0.0000000000000000e+00  1.0548345436087491e-06 2.8590344181478095e-09 0.0000000000000000e+00  1.1296942729616215e+00 -2.1653491302116575e-04 0.0000000000000000e+00  -1.8770953826198822e-06 2.5188163780430551e-09 0.0000000000000000e+00  2.3931402654684455e-06 -6.8614590777269702e-09 0.0000000000000000e+00  -2.6104287581649012e-06 -1.1087153639378027e-08 0.0000000000000000e+00  -1.1243532950965661e-05 3.2919272444832144e-07 0.0000000000000000e+00  -4.2938817370439820e-06 6.0484227985869857e-07 0.0000000000000000e+00  -5.0414403875415647e-06 -5.8483526895872306e-07 0.0000000000000000e+00  2.9877934558396096e-07 1.3675256308717416e-09 0.0000000000000000e+00  1.1254882692274204e+00 -1.8482284406638475e-04 0.0000000000000000e+00  -1.6394561432732003e-06 -1.2051884490836446e-08 0.0000000000000000e+00  1.1258281576546367e+00 -3.3464639885536104e-06 0.0000000000000000e+00  1.1256740713893498e+00 -5.8808864567108304e-05 0.0000000000000000e+00  1.1254804704454455e+00 7.6000874430130075e-05 0.0000000000000000e+00  1.1248013752980730e+00 -4.0093524526493389e-03 0.0000000000000000e+00  1.1256174180872431e+00 -6.2016222893105906e-05 0.0000000000000000e+00  1.9699909757585350e+00 -1.6774088799498438e-01 0.0000000000000000e+00  1.1256851606059797e+00 -9.3838369676161771e-05 0.0000000000000000e+00  1.1257171716288639e+00 -1.2607386624059215e-04 0.0000000000000000e+00  1.1246337929507697e+00 4.5537125302038223e-05 0.0000000000000000e+00  1.1607629166516276e+00 9.3668086551842167e-02 0.0000000000000000e+00  1.1378553078976006e+00 -1.0340847796752202e-01 0.0000000000000000e+00  1.7217773165470263e+00 2.4351715988006467e-01 0.0000000000000000e+00  1.1249990364344016e+00 1.4892960845829756e-07 0.0000000000000000e+00  1.1249901271320928e+00 6.3524822400496519e-07 0.0000000000000000e+00  1.1256175735091207e+00 -6.1620576671961305e-05 0.0000000000000000e+00  1.4128103961541678e+00 2.8204814856902927e-01 0.0000000000000000e+00  1.0654401498669159e+00 -4.5648878566258586e-02 0.0000000000000000e+00  1.3878873004849950e+00 -1.9274930499868378e-01 0.0000000000000000e+00  1.1370404025008776e+00 1.3200519873308350e-02 0.0000000000000000e+00  1.1212097980438100e+00 -7.1285369370338412e-05 0.0000000000000000e+00  1.1251877359092768e+00 -6.6624905415266339e-05 0.0000000000000000e+00  1.1252266711459047e+00 1.8481954773783677e-04 0.0000000000000000e+00  1.1102211540784037e+00 -1.3464672162292154e-02 0.0000000000000000e+00  1.1196087033028472e+00 1.1829176248661365e-04 0.0000000000000000e+00  1.1256414323845285e+00 1.8054148922979062e-04 0.0000000000000000e+00  1.1246967930524372e+00 1.6524544647640339e-05 0.0000000000000000e+00  1.1243798779364291e+00 -1.7563198225081241e-04 0.0000000000000000e+00  1.1251079861557922e+00 -8.3085165630618224e-05 0.0000000000000000e+00  1.1247293584150151e+00 -1.6722603385187779e-04 0.0000000000000000e+00  1.1251304953543624e+00 2.7954184985875004e-05 0.0000000000000000e+00  1.1251119903375872e+00 1.1231773879012312e-04 0.0000000000000000e+00  1.1247221142297197e+00 -4.9914946891216837e-04 0.0000000000000000e+00  1.1137011054906092e+00 1.0857917709414984e-04 0.0000000000000000e+00  1.1135333345206395e+00 -3.9654361040596877e-05 0.0000000000000000e+00  1.1257056002849823e+00 -1.6548984503887063e-05 0.0000000000000000e+00  1.1912586815858022e+00 2.5945314112152768e-01 0.0000000000000000e+00  1.1252810450982673e+00 -3.7552785721523872e-06 0.0000000000000000e+00  -6.6152455741746319e-01 -5.7159692443295600e-02 0.0000000000000000e+00  1.1301360141934704e+00 -9.0677341996283599e-03 0.0000000000000000e+00  1.1258353115043709e+00 -2.7044308738405213e-04 0.0000000000000000e+00  1.4048602261918068e+00 2.2188950646005889e-01 0.0000000000000000e+00  1.1255369338374439e+00 -1.4825932056930434e-05 0.0000000000000000e+00  1.8851189076570609e+00 -1.0196780909774772e-01 0.0000000000000000e+00  1.1370372288661943e+00 -2.4328292892229489e-01 0.0000000000000000e+00  -5.8154584440877146e-07 1.2258934850197927e-08 0.0000000000000000e+00  1.1033134919489489e+00 5.1552876602012099e-05 0.0000000000000000e+00  -2.0190164965971813e-06 1.1954392123884772e-08 0.0000000000000000e+00  -6.9434330117456049e-06 1.5176368558122511e-08 0.0000000000000000e+00  1.1258518120126759e+00 3.3135859301027592e-05 0.0000000000000000e+00  1.0120496645461943e-06 -3.7540850648093173e-07 0.0000000000000000e+00  1.1129502898908190e+00 -1.4530448808363359e-04 0.0000000000000000e+00  -2.8911489756217591e-06 -5.2653918535975420e-11 0.0000000000000000e+00  -2.0932437914968541e-06 1.3389197318213965e-08 0.0000000000000000e+00  1.1168193710550915e+00 1.1738456127081345e-04 0.0000000000000000e+00  -2.1102797173724657e-07 3.3148285259439115e-07 0.0000000000000000e+00  1.6584446579047512e+00 -4.5223358250876233e-01 0.0000000000000000e+00  1.5159802294804861e+00 -2.7899811607651437e-01 0.0000000000000000e+00  1.1251680901224468e+00 -1.4912208150226706e-03 0.0000000000000000e+00  1.3347509628803769e+00 -9.5956853620681029e-02 0.0000000000000000e+00  1.4216110347885611e+00 -2.2843408575280169e-01 0.0000000000000000e+00  1.3746798928426422e+00 1.3396858062277042e-01 0.0000000000000000e+00  1.2820397968695048e+00 2.6651143838366698e-01 0.0000000000000000e+00  1.1256306546021830e+00 9.1232783251124437e-05 0.0000000000000000e+00  1.1127283320212176e+00 -1.4222707383051593e-04 0.0000000000000000e+00  -5.7542521510122141e-07 6.0872885650428580e-09 0.0000000000000000e+00  1.1133624749672519e+00 1.3390228714468882e-03 0.0000000000000000e+00  1.1268929679926760e+00 -1.8965075980535366e-03 0.0000000000000000e+00  1.1257169207419937e+00 6.7465497580142256e-05 0.0000000000000000e+00  1.1254488627306674e+00 -8.3292202176396868e-05 0.0000000000000000e+00  1.1137053455909245e+00 -1.6593132926761420e-06 0.0000000000000000e+00  -3.1875669212352494e-06 1.3959705791666644e-08 0.0000000000000000e+00  1.1255325030791281e+00 -2.2622799459545515e-05 0.0000000000000000e+00  1.1129205336770442e+00 -9.2137565228783526e-05 0.0000000000000000e+00  1.6550443842426716e+00 5.4057616298656033e-02 0.0000000000000000e+00  1.1255870677718189e+00 -5.0425468958513751e-05 0.0000000000000000e+00  1.1255152559736796e+00 -4.7038551671786178e-04 0.0000000000000000e+00  -1.9983030175248481e-06 -5.7520467625781378e-08 0.0000000000000000e+00  -1.3602159606908486e-05 -1.2310101552665647e-08 0.0000000000000000e+00  1.1366377404167749e+00 -2.3287516808263345e-03 0.0000000000000000e+00  1.1339806134269472e+00 -2.9805436454458267e-02 0.0000000000000000e+00  1.4393774166453788e+00 -2.0521687162387739e-01 0.0000000000000000e+00  1.1261661585887353e+00 -2.9972925825977922e-04 0.0000000000000000e+00  -3.0191846742000445e-06 -3.0759716864176523e-07 0.0000000000000000e+00  6.5625070430409027e-01 7.0087060729885263e-08 0.0000000000000000e+00  1.0894460240145569e+00 -5.8109662726983180e-04 0.0000000000000000e+00  1.1721508167581216e+00 -1.1021247043136782e-03 0.0000000000000000e+00  1.1588362220044381e+00 7.8248878289572960e-04 0.0000000000000000e+00  -5.1190703728139634e-06 3.2203342325942802e-09 0.0000000000000000e+00  1.1104030798732307e+00 3.5536710115951852e-04 0.0000000000000000e+00  1.1257574927722875e+00 -2.4799983509405987e-05 0.0000000000000000e+00  -3.6720702633911083e-06 2.2864481928018578e-08 0.0000000000000000e+00  -1.0609106315052959e-05 1.7382098559987608e-08 0.0000000000000000e+00  -4.5778431614491822e-06 -2.1790214975754599e-08 0.0000000000000000e+00  1.5229315100063134e-06 -4.4262591620384244e-09 0.0000000000000000e+00  -2.4306989609585990e-06 8.7314156857984776e-09 0.0000000000000000e+00  -1.7204826447724060e-06 1.2112814144687373e-08 0.0000000000000000e+00  7.9018267447824339e-07 -2.5482819120613385e-08 0.0000000000000000e+00  1.5494318478033026e-05 -5.2014625159432561e-07 0.0000000000000000e+00  7.6296733012253790e-06 -6.7825905376041869e-07 0.0000000000000000e+00  3.4958210406107359e-06 6.0872255988184217e-07 0.0000000000000000e+00  -2.9822665235889344e-06 -4.9768291757192013e-07 0.0000000000000000e+00  8.1114885112627231e-07 1.1823892188017061e-07 0.0000000000000000e+00  -2.6738999235158166e-07 1.2682598337251428e-08 0.0000000000000000e+00  -1.8827870476438964e-05 9.6444353155913097e-07 0.0000000000000000e+00  -1.4463023624635844e-05 -8.6847591912472499e-07 0.0000000000000000e+00  -8.7109868189324092e-07 1.5483518308149475e-09 0.0000000000000000e+00  -7.6149506855880447e-06 -3.1825266280283124e-08 0.0000000000000000e+00  -2.1752679805167143e-06 5.8773560897611241e-09 0.0000000000000000e+00  -7.2950957551141697e-07 -6.0153604149873326e-09 0.0000000000000000e+00  1.0845993948402683e+00 -7.6053501530113494e-06 0.0000000000000000e+00  1.0856083643738783e+00 2.9179009367045574e-05 0.0000000000000000e+00  1.0994936406546318e+00 3.4518701310211744e-05 0.0000000000000000e+00  1.1088720044699234e+00 -2.6737355676538770e-04 0.0000000000000000e+00  1.1258130020503356e+00 6.3392192487229205e-05 0.0000000000000000e+00  1.1254759750999030e+00 -2.4427461574250011e-05 0.0000000000000000e+00  1.0988367820154503e+00 -3.8881038985018783e-03 0.0000000000000000e+00  1.0739341323519296e+00 6.7318125720928915e-05 0.0000000000000000e+00  -2.7987581428504604e-01 1.1190991448304945e-01 0.0000000000000000e+00  1.5169639894337326e+00 1.8933830848769706e-01 0.0000000000000000e+00  3.6972195575320888e-01 -1.8388026876967117e-01 0.0000000000000000e+00  1.1256446971886327e+00 -3.3232942962682015e-05 0.0000000000000000e+00  1.1257175470641880e+00 -3.0092714437748927e-05 0.0000000000000000e+00  1.1258143904100946e+00 -7.9541657381658714e-05 0.0000000000000000e+00  1.1257321530346758e+00 -4.4779186846027859e-05 0.0000000000000000e+00  1.0836948817665135e+00 7.1346273251814341e-05 0.0000000000000000e+00  1.0991247259564860e+00 -3.1215101678727696e-04 0.0000000000000000e+00  1.0746431972106432e+00 2.1440598192620775e-04 0.0000000000000000e+00  1.1240332898190319e+00 -1.5041257665960805e-04 0.0000000000000000e+00  1.1271916222388247e+00 4.6116178634994639e-03 0.0000000000000000e+00  1.0633496205344650e+00 -3.2182006844635028e-02 0.0000000000000000e+00  7.8720770203686330e-01 5.3591645285993007e-02 0.0000000000000000e+00  1.1257097943045993e+00 1.8194359897104644e-05 0.0000000000000000e+00  1.1254236756131479e+00 -3.9797297159174619e-05 0.0000000000000000e+00  1.1256787541856026e+00 1.5919896953718440e-05 0.0000000000000000e+00  1.1027114213778704e+00 1.4733862231666695e-04 0.0000000000000000e+00  1.1258062342682440e+00 7.4383545614643224e-05 0.0000000000000000e+00  1.1255701653820516e+00 -2.0897145466284417e-05 0.0000000000000000e+00  1.0928725005213040e+00 -1.3041319247057329e-04 0.0000000000000000e+00  1.1256514756897198e+00 1.8559608636041935e-05 0.0000000000000000e+00  1.0873016307472889e+00 7.6762152484052235e-05 0.0000000000000000e+00  1.1682635724712298e+00 1.2015276997911842e-02 0.0000000000000000e+00  6.5624823906917595e-01 -6.2901603368798627e-08 0.0000000000000000e+00  9.9750275071840033e-01 4.1723749381817249e-02 0.0000000000000000e+00  1.1571499225363930e+00 -2.5460653000108115e-02 0.0000000000000000e+00  1.7639869569507238e+00 5.4666985285157577e-01 0.0000000000000000e+00  1.0547268944827555e+00 1.2556282357848675e-05 0.0000000000000000e+00  1.1277979443089765e+00 -4.2677893492076976e-03 0.0000000000000000e+00  1.1254966146379886e+00 -1.9882247244920701e-04 0.0000000000000000e+00  1.1255664972876533e+00 2.0478511226318798e-05 0.0000000000000000e+00  1.1255946867785021e+00 -1.1129191050267186e-05 0.0000000000000000e+00  1.1256493565167198e+00 -8.9990219258798709e-05 0.0000000000000000e+00  1.0506694173325259e+00 1.4908282664396960e-01 0.0000000000000000e+00  8.2249995827195543e-01 9.6656926069867560e-03 0.0000000000000000e+00  9.1580549415878809e-01 -7.6851180293196014e-02 0.0000000000000000e+00  1.1257719384398479e+00 -1.9323948430360284e-05 0.0000000000000000e+00  1.1255609354403604e+00 -5.2935284693044984e-05 0.0000000000000000e+00  1.2409044899897421e+00 -5.4155277819881468e-04 0.0000000000000000e+00  1.1255273522053433e+00 7.1143169948271432e-06 0.0000000000000000e+00  8.4817602015744020e-01 -8.4415386119644255e-03 0.0000000000000000e+00  1.0660200113489779e+00 3.7798186226822909e-04 0.0000000000000000e+00  9.8948176663237919e-01 1.3792122158768618e-02 0.0000000000000000e+00  9.4276486236261559e-01 9.6457910504851557e-02 0.0000000000000000e+00  8.5898307538646235e-01 5.0899390695720435e-02 0.0000000000000000e+00  1.2658369709245205e+00 -1.4625333139346977e-03 0.0000000000000000e+00  1.1257580100303446e+00 1.3583119125775930e-04 0.0000000000000000e+00  1.1273925870907795e+00 -4.2307853691259947e-04 0.0000000000000000e+00  1.2254238478068187e+00 1.8201759470838361e-01 0.0000000000000000e+00  1.0876988349042271e+00 1.4420410818381243e-04 0.0000000000000000e+00  1.1197861752471385e+00 -2.1846759472271166e-04 0.0000000000000000e+00  1.1256564650457803e+00 -6.8739079489648852e-05 0.0000000000000000e+00  1.1256341405016157e+00 -1.4883654649943111e-04 0.0000000000000000e+00  1.3956624974901106e+00 3.4804471814027897e-02 0.0000000000000000e+00  1.1255025803836196e+00 1.2335795884734610e-04 0.0000000000000000e+00  1.1256125283125262e+00 2.7641493316300477e-05 0.0000000000000000e+00  1.1256033317261598e+00 1.9786602187328888e-05 0.0000000000000000e+00  1.1253579535703404e+00 -3.3365720411745716e-04 0.0000000000000000e+00  9.9763956963852218e-01 -4.4295828810881758e-05 0.0000000000000000e+00  9.9737059319766364e-01 -2.5299700165028768e-04 0.0000000000000000e+00  1.0411136853303378e+00 -5.2427557936749847e-04 0.0000000000000000e+00  1.0704393288574006e+00 -1.0917004589692168e-04 0.0000000000000000e+00  1.0886935261143478e+00 2.7818425007805313e-05 0.0000000000000000e+00  1.1255990868564645e+00 -6.3509974386741179e-05 0.0000000000000000e+00  1.0274753627812678e+00 -6.7881863408547318e-05 0.0000000000000000e+00  1.1258108550814412e+00 2.0946321969729838e-05 0.0000000000000000e+00  1.1256532440307774e+00 -5.8545622886970448e-06 0.0000000000000000e+00  1.3364482234474515e+00 -8.9324601846134041e-02 0.0000000000000000e+00  1.1257157090403311e+00 -2.4085773404833372e-05 0.0000000000000000e+00  1.1256409776886545e+00 -1.5224932782018796e-05 0.0000000000000000e+00  1.1237931565642374e+00 -8.3375930817940203e-03 0.0000000000000000e+00  9.5186955726913902e-01 5.1179384486437452e-05 0.0000000000000000e+00  1.1241646601296231e+00 3.4667222886235088e-05 0.0000000000000000e+00  1.4664990062256771e+00 -3.9735458807825513e-01 0.0000000000000000e+00  1.0579258303770911e+00 2.5917667108383538e-05 0.0000000000000000e+00  7.3678701570909522e-01 -7.6034445667612374e-02 0.0000000000000000e+00  1.4178524112906774e+00 -6.9987333701390930e-02 0.0000000000000000e+00  1.0525682927436837e+00 6.5749645921521504e-04 0.0000000000000000e+00  9.9103468553762619e-01 -1.1811876203128574e-04 0.0000000000000000e+00  1.5426577963493195e+00 4.7393774659755966e-01 0.0000000000000000e+00  1.0104144110465050e+00 1.7962571924603080e-01 0.0000000000000000e+00  1.0391651465140177e+00 3.0172475798830668e-04 0.0000000000000000e+00  1.9250395036308734e+00 2.3279466618054787e-01 0.0000000000000000e+00  1.4511126388720248e+00 -5.0615339675247872e-01 0.0000000000000000e+00  9.7087233870579603e-01 -1.8912469718914324e-01 0.0000000000000000e+00  1.0361608068002446e+00 -1.2058726615653199e-03 0.0000000000000000e+00  1.0081693737717770e+00 -5.9047347149195066e-02 0.0000000000000000e+00  1.0238702656331655e+00 -1.2504932848545299e-04 0.0000000000000000e+00  1.0534355699098319e+00 3.6519616556182584e-04 0.0000000000000000e+00  1.1254940815261174e+00 -2.3654194645253248e-05 0.0000000000000000e+00  7.0318683132745785e-01 -6.2949433923341668e-03 0.0000000000000000e+00  1.4062435013540660e+00 3.1189668015923045e-07 0.0000000000000000e+00  1.1257570366190499e+00 6.1038870978957638e-05 0.0000000000000000e+00  1.0402487422411375e+00 -7.7002835399175254e-04 0.0000000000000000e+00  1.4062430160621626e+00 4.9602996337316328e-07 0.0000000000000000e+00  1.0399428192094322e+00 4.3849079431679177e-05 0.0000000000000000e+00  1.1253667392018405e+00 -8.0960413443874617e-04 0.0000000000000000e+00  1.1374670814887555e+00 5.1994559458085420e-02 0.0000000000000000e+00  1.1257036185580216e+00 -9.5622017484541067e-06 0.0000000000000000e+00  7.1753796972023764e-01 1.0033795405857247e-01 0.0000000000000000e+00  1.1256278572310909e+00 -1.3752040494928665e-05 0.0000000000000000e+00  1.0246124282938609e+00 -2.5865118426048159e-04 0.0000000000000000e+00  1.0110661792371791e+00 2.4258990942843377e-03 0.0000000000000000e+00  9.0458982459379589e-01 1.4015144188383273e-04 0.0000000000000000e+00  1.1254218047370537e+00 7.5310005023442107e-05 0.0000000000000000e+00  9.0539848843056991e-01 -5.9117533807999759e-05 0.0000000000000000e+00  9.95598750736