<?xml version="1.0"?>
<VTKFile type="UnstructuredGrid"  version="0.1"  >
<UnstructuredGrid>
<Piece  NumberOfPoints="2446" NumberOfCells="4585">
<Points>
<DataArray  type="Float64"  NumberOfComponents="3"  format="ascii">0 0.41 0  0 0 0  2.2 0 0  2.2 0.41 0  0.2404508497187474 0.2293892626146237 0  0.25 0.2 0  0.2404508497187474 0.1706107373853764 0  0.2154508497187474 0.1524471741852423 0  0.1845491502812526 0.1524471741852423 0  0.1595491502812526 0.1706107373853764 0  0.15 0.2 0  0.1595491502812526 0.2293892626146237 0  0.1845491502812527 0.2475528258147577 0  0.2154508497187474 0.2475528258147577 0  1.1 0 0  1.1 0.41 0  0 0.205 0  0.55 0 0  0.55 0.41 0  0.275 0 0  0.275 0.41 0  1.65 0.41 0  1.65 0 0  0.8250000000000001 0.41 0  0.8250000000000001 0 0  1.375 0 0  1.375 0.41 0  1.925 0 0  1.925 0.41 0  1.5125 0.205 0  1.7875 0.205 0  0.6875 0.205 0  0.9625000000000001 0.205 0  1.2375 0.205 0  2.2 0.205 0  0.4687002074688797 0.2068568464730291 0  1.99375 0.2152743902439024 0  2.0625 0 0  2.0625 0.41 0  2.2 0.3075 0  0.4125 0 0  0.4125 0.41 0  1.7875 0.41 0  1.375 0.1486128048780488 0  1.5125 0 0  1.7875 0 0  1.5125 0.41 0  0.8250000000000001 0.2613871951219511 0  0.9625000000000001 0.41 0  0.9625000000000001 0 0  0.6875 0.41 0  0.6875 0 0  0.1375 0 0  0.1375 0.41 0  1.2375 0 0  1.1 0.1486128048780487 0  1.2375 0.41 0  1.65 0.1486128048780487 0  1.126715909090909 0.2793064024390244 0  1.676715909090909 0.2793064024390244 0  0.8517159090909092 0.1306935975609756 0  1.348284090909091 0.2793064024390244 0  0.34375 0.3032389320646208 0  1.894702181800738 0.1282910975492754 0  2.092797818199262 0.1282910975492754 0  1.85625 0.3075 0  0.61875 0.3075 0  0.61875 0.1025 0  0.3648540804333487 0.1240075933101478 0  0 0.3075 0  0 0.1025 0  2.099172119769978 0.25625 0  0.48125 0.09238439620688085 0  0.5781001037344399 0.2059284232365146 0  0.48125 0.3196743479159776 0  0.7265881057911006 0.3055240343720796 0  1.99375 0.08395950269330846 0  1.459960956013612 0.3075 0  1.569025960719943 0.2986889805672169 0  0.75625 0.08213100772579164 0  1.03125 0.3278689922742084 0  0.923871252904788 0.3078247185783941 0  1.959375 0.3126371951219512 0  1.749222215368287 0.1025 0  1.275777784631713 0.1025 0  2.2 0.1025 0  1.225938124459196 0.3075 0  1.550777784631713 0.1025 0  1.000777784631713 0.1025 0  1.44375 0.07430640243902442 0  1.16875 0.07430640243902437 0  1.899250267340833 0.2229966846119207 0  0.1020898364287272 0.3140258291809757 0  1.766482954545455 0.2934032012195123 0  0.3405058858996321 0.2119987970531874 0  0.7710785630958338 0.1710968191298857 0  1.046078563095834 0.2389031808701144 0  0.2 0.3400647632937836 0  1.421109702350723 0.2261157654379721 0  0.2800464974185557 0.08982544815605742 0  0.098916018031319 0.09171660955420841 0  2.13125 0 0  2.118919042110979 0.3422084711244843 0  1.30625 0.41 0  0.89375 0 0  1.597888256393107 0.2173787389261347 0  0.20625 0 0  1.829299675393195 0.07400700849299596 0  1.71875 0.41 0  1.16875 0.41 0  2.038220665644273 0.332420740103091 0  0.34375 0 0  0.417496017710808 0.2696595573092803 0  0.2 0.07687845740457822 0  0.9295982307099278 0.1343158415898188 0  0.07390688010811153 0.1697064032433452 0  0.5238366813727013 0.2578302467013575 0  0.05452951551825875 0.25625 0  0.5229630068078351 0.1548816096928243 0  1.452769549894695 0.1548122580621249 0  1.369219062229598 0.07430640243902442 0  1.30625 0 0  0.8504409521244898 0.3356935975609756 0  0.8821881244591965 0.205 0  1.720943423819132 0.1714577452753128 0  1.157188124459196 0.205 0  1.094219062229598 0.07430640243902437 0  1.03125 0 0  1.304056576180868 0.1714577452753128 0  1.67579304192913 0.07430640243902437 0  0.2751941921308361 0.3346083473122598 0  1.209670467133757 0.1362100266964769 0  1.025335513626278 0.1700681449722324 0  0.7562500000000001 0.41 0  1.58125 0 0  0.7567170593862014 0.2409196493502535 0  0.6926714215682891 0.1272249611432207 0  0.4139715849905988 0.3397932387114203 0  0.9840787304190477 0.2717749043358119 0  0.06875000000000001 0.41 0  0 0.35875 0  0.9281250000000001 0.06276726142697993 0  0.5507396469029935 0.3219409231578227 0  0.5504468037989405 0.09136885600634273 0  1.58125 0.41 0  1.631724228912893 0.3381867502687533 0  1.825608881788174 0.14499488549201 0  1.85625 0 0  1.44375 0 0  1.44375 0.41 0  1.85625 0.41 0  2.13125 0.41 0  0.7562500000000001 0 0  0.89375 0.41 0  0.4812500000000001 0 0  0.34375 0.41 0  0.4812500000000001 0.41 0  0.20625 0.41 0  0.06875000000000001 0 0  1.16875 0 0  0.61875 0 0  0.61875 0.41 0  1.03125 0.41 0  1.71875 0 0  1.99375 0 0  1.99375 0.41 0  1.340625 0.3489494290853124 0  1.134375 0.3489494290853123 0  1.700180620188976 0.3438659752031281 0  2.135782184673599 0.07126652247502523 0  1.668441847249787 0.2129203728327609 0  1.295782514339747 0.2378437748815763 0  0.8233075729931248 0.06842334294821524 0  1.409375 0.3520314716057996 0  0.403505597322782 0.182067236678212 0  0.378125 0.05794951541303489 0  0.3043468223249023 0.1518321115979534 0  2.129248544730567 0.1906135162504124 0  2.060771381434487 0.1989445750470348 0  2.013252586573865 0.1496169464686054 0  1.942766402200229 0.1734448904596831 0  1.895522487186454 0.06076163953489683 0  2.069553871656643 0.06605731020975725 0  1.274680914880868 0.3520219391081363 0  1.614713220494657 0.09473434380863296 0  0.7899021319497519 0.3149123934144827 0  0.69518737419149 0.0634051089053758 0  0.2971740475496061 0.2592172353407536 0  1.72990325744076 0.2380068107952482 0  1.356580098625191 0.2120393231351682 0  2.034370752044885 0.2668681600792073 0  1.51768709249349 0.3426260931494756 0  1.561883724969884 0.1650446847858835 0  1.197344062229598 0.2523725417393646 0  1.804085235518364 0.3468178408964637 0  1.817887819205233 0.2589243285818559 0  1.905897727272727 0.3485060975609756 0  0.6719798073392919 0.2688965171178177 0  0 0.05125 0  0.653125 0.35875 0  0.6396896119294488 0.1627615407790282 0  0.4274150154087412 0.1242548552168279 0  1.192836486056382 0.3562350748565544 0  0.8279124365364005 0.183856489168822 0  1.097485222388854 0.2083571153401724 0  1.28257088594801 0.2944411014911587 0  1.474860187679412 0.2504218616229368 0  1.406767003493824 0.2829282258560709 0  0.446875 0.04619219810344041 0  0.515625 0.04585361801037557 0  0.592043440706648 0.05125 0  1.845656689180403 0.1998310418452388 0  2.144958525570388 0.2909790873294231 0  0.6171090763650112 0.2492366900333857 0  2.2 0.15375 0  0.5145586920831158 0.3648371739579888 0  1.57794966442982 0.3540357145964566 0  0.721875 0.3633107922168974 0  0.0496154796471391 0.333125 0  0.5843750000000001 0.3662560860076676 0  0.5810878747760798 0.1474002776121195 0  1.508991196088596 0.1421783375065625 0  0.8840670607017558 0.2640994375393898 0  0.09776612425612034 0.2204896805326566 0  1.50436820029908 0.06143401634903343 0  1.223857000523521 0.0823554862453532 0  1.153316824384777 0.1289850171317837 0  2.148922302309752 0.1258841779285271 0  0.309375 0.04312325590431198 0  1.621993280276081 0.2841214267927899 0  1.550118654119087 0.2461998729100966 0  1.327182649291491 0.1216967252533594 0  1.051977450479407 0.1221382572915816 0  1.753125 0.04556020050186112 0  1.271875 0.04556020050186116 0  0.9816084133102366 0.05126138213476004 0  1.039051841454368 0.0572224914831029 0  0.9719230514536006 0.3480477870845102 0  1.94956388244759 0.1180512551534177 0  1.949997712993411 0.04965831614304109 0  1.771961817615021 0.1530278789497521 0  1.909246823951428 0.2812757146784527 0  0.2459536687882397 0.04668633953831142 0  1.948575539857022 0.2445328248721197 0  1.697271520964565 0.1233917627620729 0  0.7964897648514618 0.1211426571931604 0  1.065625 0.3689344961371042 0  1.085849084308977 0.3170853572226867 0  0.4702981435440001 0.260434880697798 0  1.577403511714593 0.05463601888079143 0  0.05622663515370135 0.05493816910862376 0  0.3267207591099919 0.3566194660323104 0  0.9003051618565143 0.3564049499960621 0  1.751571320346033 0.3651102912045228 0  0.1583785085108421 0.2994699345738728 0  0.1455283439499995 0.3542795598723423 0  2.2 0.35875 0  0.2347662494194072 0.298325008655211 0  0.1527284455616188 0.1065771775690181 0  0.1382139529076665 0.05427454456341477 0  0.8749341636311069 0.05110114999892954 0  0.643661668713109 0.05693499781019222 0  1.466879772203159 0.3611261772912453 0  1.990280163552011 0.3564754268533217 0  1.17471064520912 0.2990917256188288 0  0.5202693090594349 0.206382495511728 0  0 0.25625 0  2.2 0.25625 0  2.2 0.05125 0  0 0.15375 0  1.853978576207987 0.35875 0  0.9787513713939683 0.1487523696999336 0  0.240625 0.3722153812029779 0  1.515638456102889 0.2882700110184686 0  0.09048297387599738 0.3637717362208066 0  2.150453692751374 0.2387066338105111 0  1.323782677156475 0.04897634338873398 0  0.8074131292871642 0.3624701995505916 0  1.409375 0.03715320121951221 0  1.406484531114799 0.1087852750766809 0  1.134375 0.03715320121951218 0  1.627401732573545 0.04552157221025036 0  0.1170173172005315 0.1427610859166811 0  2.045405893604797 0.1105340662939892 0  1.255408269734577 0.1577307500159216 0  2.028125 0.03707597992059326 0  0.4743610090857199 0.1421513964721819 0  0.9354010469015898 0.250631300585664 0  0.04420832937638274 0.128125 0  0.8922386349349938 0.0992956419364831 0  0.1197849154434487 0.2663398672460083 0  1.248258025468107 0.2565907092181813 0  0.3746885856929528 0.370723531618974 0  1.203125 0.0366132337404304 0  0.5724622277005015 0.2751253816079333 0  0.3365425205162783 0.08395777655057959 0  2.072662025974815 0.2975086504196739 0  0.4581080832182547 0.3648371739579888 0  0.3874522734668214 0.2295447548840689 0  0.7827853612484443 0.04106550386289586 0  1.887722846421017 0.1760882698830035 0  1.472640588990488 0.1118278026240017 0  1.865937103925594 0.2604137786483804 0  1.463913572748262 0.2030442564990043 0  1.376426316059077 0.3186741374914345 0  0.6641993820150034 0.3141688596240831 0  0.2943117490824315 0.2130987422685822 0  0.3478153998082709 0.1666571081082676 0  0.3427990510599805 0.2575950027870776 0  0.7997118993855807 0.2216171933356366 0  
[...]
<PointData  Vectors="f_31"> 
<DataArray  type="Float64"  Name="f_31"  NumberOfComponents="3" format="ascii">1.2210482233565334e-04 1.2676012881408891e-04 0.0000000000000000e+00  6.5066848089215449e-05 -9.0797669987969121e-05 0.0000000000000000e+00  -6.0406883756139162e-06 1.2467323300251819e-06 0.0000000000000000e+00  -3.8697037739554699e-05 1.3372548619065494e-05 0.0000000000000000e+00  1.5016431228616667e-04 8.2619409424554308e-05 0.0000000000000000e+00  1.6399061064438496e-05 -5.5290735938799804e-06 0.0000000000000000e+00  1.0779007572545895e-04 -2.6031743349259776e-05 0.0000000000000000e+00  2.3938829032710821e-05 -2.0376870775144039e-04 0.0000000000000000e+00  -4.0540741008456393e-05 -9.8470031018755975e-05 0.0000000000000000e+00  5.8954367230484979e-05 -2.1978768460405297e-05 0.0000000000000000e+00  1.1941122535324074e-05 6.0156334384767330e-06 0.0000000000000000e+00  9.2674578712999208e-06 7.2291081946789865e-05 0.0000000000000000e+00  -5.3268366896845837e-05 8.4313562799169170e-05 0.0000000000000000e+00  9.9839749869043355e-05 8.0600061576758186e-05 0.0000000000000000e+00  -7.9465835256959008e-06 -7.6416514683241957e-06 0.0000000000000000e+00  -1.5279497881917965e-05 -1.0667195086628514e-05 0.0000000000000000e+00  1.5000027017115460e+00 6.2714209819302526e-06 0.0000000000000000e+00  -1.2298138541819919e-05 2.1557837558877993e-05 0.0000000000000000e+00  -1.7749666555403187e-06 9.0480889115706181e-06 0.0000000000000000e+00  9.7064606923602959e-06 -9.2200876570860878e-06 0.0000000000000000e+00  -1.6612215864349734e-05 -9.6401627022969232e-06 0.0000000000000000e+00  -2.9029935893285704e-06 -3.1844037263354222e-06 0.0000000000000000e+00  1.7441101673417974e-06 -4.9072289564159540e-06 0.0000000000000000e+00  1.4604294948373889e-05 9.0233120727655529e-06 0.0000000000000000e+00  2.8220079197024587e-06 -6.8022677110154003e-06 0.0000000000000000e+00  -1.0548921969974657e-05 1.7507237517594396e-05 0.0000000000000000e+00  -7.3247136071596846e-06 -2.3912413416955425e-05 0.0000000000000000e+00  -1.7187095415582143e-05 -7.5054721217167520e-06 0.0000000000000000e+00  -2.4860724644252321e-05 -9.5097617500879004e-06 0.0000000000000000e+00  1.0310626443565971e+00 8.5757508750047921e-05 0.0000000000000000e+00  1.0309598808893439e+00 -9.3698956723660035e-05 0.0000000000000000e+00  1.0305531916516142e+00 -4.1876826346416165e-04 0.0000000000000000e+00  1.0309399370661489e+00 -1.2572241612164947e-04 0.0000000000000000e+00  1.0310109624105575e+00 7.5765597877908156e-05 0.0000000000000000e+00  1.0320440785251697e+00 1.7546040738305020e-05 0.0000000000000000e+00  1.0180156832126066e+00 -2.9952888003823321e-03 0.0000000000000000e+00  1.0310831708544432e+00 -7.8497721232003269e-05 0.0000000000000000e+00  1.1514649184784290e-05 3.4195377423335696e-06 0.0000000000000000e+00  6.0644417199800681e-06 -5.9173420476525811e-06 0.0000000000000000e+00  1.0329997513855782e+00 -8.6739000534125825e-04 0.0000000000000000e+00  -7.5701302513411835e-06 -2.7540109181406582e-05 0.0000000000000000e+00  -9.2276074820677806e-06 -1.0929576751547085e-05 0.0000000000000000e+00  -1.2259930240633647e-05 5.3594685601180751e-06 0.0000000000000000e+00  1.0310494250840907e+00 1.9093180121860443e-04 0.0000000000000000e+00  1.8863845887167927e-05 2.7054092819956839e-07 0.0000000000000000e+00  -2.2716400690413843e-06 -2.2774643678959379e-06 0.0000000000000000e+00  5.2357381779036431e-06 1.0067805879187567e-05 0.0000000000000000e+00  1.0310053061247189e+00 -1.7999079612063699e-04 0.0000000000000000e+00  1.0241721029985334e-05 6.0560038785677264e-06 0.0000000000000000e+00  -7.8344551162208193e-06 1.1167966749126018e-06 0.0000000000000000e+00  2.1642800856112404e-06 -3.8298494056378689e-06 0.0000000000000000e+00  -1.7792432331234060e-05 -2.3904860004945374e-05 0.0000000000000000e+00  -5.4959554334311296e-06 7.2527919733771802e-06 0.0000000000000000e+00  -2.1134301984543072e-05 1.7212750647920501e-05 0.0000000000000000e+00  -4.8246629120265891e-06 -7.7318273083834965e-06 0.0000000000000000e+00  1.0308177825162743e+00 -1.1246033141360682e-04 0.0000000000000000e+00  -9.1320410874585291e-06 8.7330306624100797e-06 0.0000000000000000e+00  1.0310889542837776e+00 -1.1515593635688726e-05 0.0000000000000000e+00  1.0308390411693369e+00 -1.6659442576503743e-04 0.0000000000000000e+00  1.0310076325061788e+00 4.8461996821294489e-05 0.0000000000000000e+00  1.0310202944967324e+00 -1.8132126123574283e-04 0.0000000000000000e+00  1.0311305839654261e+00 1.9269677505263767e-04 0.0000000000000000e+00  1.0587170076477062e+00 -8.8665926693140940e-02 0.0000000000000000e+00  1.0308757847426488e+00 -9.3783656849554504e-05 0.0000000000000000e+00  1.0311423720547153e+00 4.0624945879597253e-04 0.0000000000000000e+00  1.0307376388126688e+00 -6.7931521608556285e-05 0.0000000000000000e+00  1.0312055856539297e+00 -1.4811585337105313e-03 0.0000000000000000e+00  1.0295247415633473e+00 3.7743333149449611e-05 0.0000000000000000e+00  1.0162684304464977e+00 6.5839507478098719e-02 0.0000000000000000e+00  1.1250621876591331e+00 8.7570379582125121e-08 0.0000000000000000e+00  1.1250453876301783e+00 -1.3216692944083763e-05 0.0000000000000000e+00  1.0312783361944200e+00 -3.2070157408047750e-04 0.0000000000000000e+00  1.0313312530666168e+00 8.5929626296065171e-03 0.0000000000000000e+00  1.0287199468710588e+00 -1.0128402684368302e-03 0.0000000000000000e+00  1.0353334694814935e+00 -1.1033437739581556e-02 0.0000000000000000e+00  1.0312984962866310e+00 -5.3504250747056276e-04 0.0000000000000000e+00  1.0310767523837099e+00 -1.4611233187738046e-06 0.0000000000000000e+00  1.0310762143702144e+00 2.9002043780403034e-05 0.0000000000000000e+00  1.0307417223294555e+00 6.4946135630674685e-05 0.0000000000000000e+00  1.0307603426376271e+00 -3.7936632375434743e-05 0.0000000000000000e+00  1.0282048478717483e+00 1.3126694219044032e-03 0.0000000000000000e+00  1.0310821101403504e+00 8.6584827527581473e-06 0.0000000000000000e+00  1.0313098132016303e+00 -1.6911292058794411e-04 0.0000000000000000e+00  1.0307495164226246e+00 -5.3684256017852005e-04 0.0000000000000000e+00  1.0310441946910003e+00 3.4889150078916707e-04 0.0000000000000000e+00  1.0330027271894877e+00 7.8497662826199099e-04 0.0000000000000000e+00  1.0313402785894326e+00 -4.9666383957309254e-05 0.0000000000000000e+00  1.0309645536578262e+00 -1.5298017824208419e-04 0.0000000000000000e+00  1.0309183234327286e+00 -9.0948689052035452e-05 0.0000000000000000e+00  1.0328888449872877e+00 4.3994480685002972e-04 0.0000000000000000e+00  1.0305089506139773e+00 3.0653744217547983e-04 0.0000000000000000e+00  1.0309383957405249e+00 -1.4763628657752162e-04 0.0000000000000000e+00  1.0915786723109970e+00 3.2758701500656040e-01 0.0000000000000000e+00  1.0308543427849328e+00 -9.6539183651249134e-05 0.0000000000000000e+00  9.1406433846591406e-01 -3.1985170882423739e-02 0.0000000000000000e+00  1.0308828456341177e+00 -1.3598274590126641e-04 0.0000000000000000e+00  1.0309448711991502e+00 -9.2198253616785275e-05 0.0000000000000000e+00  1.2769092865291136e+00 5.0803794424424981e-02 0.0000000000000000e+00  1.0310739762266807e+00 1.8646125200442789e-04 0.0000000000000000e+00  1.1709378607422301e+00 1.5315528987990890e-01 0.0000000000000000e+00  1.0692663162723299e+00 -3.3768108853864970e-01 0.0000000000000000e+00  1.0681273862111840e-05 -1.7722272612518030e-05 0.0000000000000000e+00  1.0307192675687136e+00 -5.2857998610031061e-04 0.0000000000000000e+00  1.2059943862872762e-05 -2.8038349442360455e-06 0.0000000000000000e+00  -5.9382230603256185e-06 -1.0190923396778114e-05 0.0000000000000000e+00  1.0310151304602302e+00 3.5632082660309529e-06 0.0000000000000000e+00  -1.0294032978746599e-05 -6.5316196889144124e-06 0.0000000000000000e+00  1.0306498817326910e+00 -6.4781956424394811e-04 0.0000000000000000e+00  -1.9147933234871974e-05 1.4172257689427425e-05 0.0000000000000000e+00  3.2444275068986573e-06 -7.6204835069425641e-06 0.0000000000000000e+00  1.0301368682080518e+00 7.4351279722826593e-04 0.0000000000000000e+00  -1.2643182626438983e-05 1.8928081255892242e-05 0.0000000000000000e+00  1.0198457794932259e+00 -2.8390166807837940e-02 0.0000000000000000e+00  1.3356890701619744e+00 -3.8737257338593144e-02 0.0000000000000000e+00  1.0309075203694174e+00 -1.8389573994105231e-04 0.0000000000000000e+00  1.1705925723842865e+00 -2.2425158090411645e-01 0.0000000000000000e+00  1.0280153870912936e+00 -5.4305664133377932e-03 0.0000000000000000e+00  1.2709987480616800e+00 3.9543943277834237e-01 0.0000000000000000e+00  1.0264857835414720e+00 2.4223724901383005e-03 0.0000000000000000e+00  1.0311021107891767e+00 1.3737458147148945e-04 0.0000000000000000e+00  1.0290666283505232e+00 -1.9037079315105552e-03 0.0000000000000000e+00  -6.6559115417796696e-06 1.6254771939291840e-05 0.0000000000000000e+00  1.0310639306220322e+00 -4.5461148669143753e-04 0.0000000000000000e+00  1.0310169671867524e+00 -1.3752182642987488e-04 0.0000000000000000e+00  1.0309803773659727e+00 -5.6328224528969893e-05 0.0000000000000000e+00  1.0308914838004399e+00 -4.2723977395292302e-05 0.0000000000000000e+00  1.0310897139609643e+00 -7.1690233147824855e-04 0.0000000000000000e+00  -7.4909271035242078e-06 -5.6471437620450544e-06 0.0000000000000000e+00  1.0310579689658259e+00 2.0818703238116638e-04 0.0000000000000000e+00  1.0304720479321787e+00 -7.6516257010218432e-04 0.0000000000000000e+00  1.1913517938070834e+00 -9.4633779798149242e-02 0.0000000000000000e+00  1.0308245653225365e+00 1.4050152456256506e-04 0.0000000000000000e+00  1.0308938327382131e+00 -1.0792862418510313e-04 0.0000000000000000e+00  -5.7134678773791216e-06 1.5670936971542186e-06 0.0000000000000000e+00  -1.0449080227536477e-05 -4.4108298403384329e-06 0.0000000000000000e+00  1.0309763507256984e+00 -3.4789772607330397e-04 0.0000000000000000e+00  1.0306267036046004e+00 2.7949038946007402e-05 0.0000000000000000e+00  1.0503203611216878e+00 -2.3552647793079917e-02 0.0000000000000000e+00  1.0309400817896477e+00 -1.2390021111036102e-04 0.0000000000000000e+00  -6.4387346929954496e-05 1.1034847631460677e-05 0.0000000000000000e+00  6.5636578598075335e-01 6.7506305780228978e-05 0.0000000000000000e+00  1.0310400231601984e+00 3.3344787042538174e-04 0.0000000000000000e+00  1.0329618780622469e+00 -3.8729458200693866e-03 0.0000000000000000e+00  1.0304031162607494e+00 2.4412401549730196e-03 0.0000000000000000e+00  -1.1781544806958981e-05 5.1838137540258201e-06 0.0000000000000000e+00  1.0299257420064958e+00 5.8300746193508531e-04 0.0000000000000000e+00  1.0308959325981302e+00 -1.5132124737601003e-04 0.0000000000000000e+00  -1.6344615910989078e-05 -8.7463137821943778e-06 0.0000000000000000e+00  -2.2111105841047006e-05 5.5101996357138673e-06 0.0000000000000000e+00  -1.3022454806922685e-05 1.6452338254691303e-05 0.0000000000000000e+00  1.7877316793590294e-06 -3.1059838625882260e-06 0.0000000000000000e+00  -1.5079303949824357e-05 7.0958084150503024e-06 0.0000000000000000e+00  -1.0176710970045653e-05 -1.5509080468663789e-05 0.0000000000000000e+00  -2.3527026751822166e-05 -7.5618932138426887e-06 0.0000000000000000e+00  -5.7075848766086567e-08 -9.0415302234438595e-06 0.0000000000000000e+00  -8.1179838487297569e-06 -6.5008040419839611e-06 0.0000000000000000e+00  -2.2151200504929363e-05 9.1175838149791698e-06 0.0000000000000000e+00  -2.0648439097248825e-05 1.9020533591137618e-05 0.0000000000000000e+00  -5.3654718058738092e-05 -4.0934865787935802e-06 0.0000000000000000e+00  -1.0316902268590166e-05 -3.6455612120586204e-06 0.0000000000000000e+00  1.6111713048350005e-05 6.6169667568492967e-06 0.0000000000000000e+00  -3.8234018129851373e-05 1.9556333676249677e-05 0.0000000000000000e+00  -2.5683702037603755e-05 -9.7686785089187636e-06 0.0000000000000000e+00  -4.0865554583475723e-06 7.7751876110280221e-06 0.0000000000000000e+00  -8.5315514336656689e-06 -8.5537518366266785e-06 0.0000000000000000e+00  1.1538765939767520e-05 7.4568657620300678e-06 0.0000000000000000e+00  1.0196700922157271e+00 5.7701093956816192e-03 0.0000000000000000e+00  1.0283018445331686e+00 1.3545934277273014e-04 0.0000000000000000e+00  1.0304939373428890e+00 1.1499816718995239e-03 0.0000000000000000e+00  1.0311694350253005e+00 1.8290740810845527e-03 0.0000000000000000e+00  1.0310222463437331e+00 -7.6365518697135521e-06 0.0000000000000000e+00  1.0311084996793105e+00 1.2802492162346040e-04 0.0000000000000000e+00  1.0305894361758967e+00 -1.6477133484887794e-03 0.0000000000000000e+00  1.0267191992063551e+00 2.1849254270709119e-03 0.0000000000000000e+00  9.9367206369019567e-01 9.7450291810182183e-03 0.0000000000000000e+00  1.0650036048685834e+00 3.1645137970442050e-02 0.0000000000000000e+00  9.1923028826944664e-01 2.0243201796419008e-01 0.0000000000000000e+00  1.0315817327750694e+00 1.0424544669714430e-04 0.0000000000000000e+00  1.0312453828614827e+00 2.6940178743144739e-07 0.0000000000000000e+00  1.0311099089162117e+00 1.5928119013708913e-05 0.0000000000000000e+00  1.0309706802114187e+00 -7.5587489987683409e-05 0.0000000000000000e+00  1.0292437892375117e+00 -6.9807624429077723e-04 0.0000000000000000e+00  1.0289014005883550e+00 -7.0457513612152023e-04 0.0000000000000000e+00  1.0315845176131251e+00 -1.5664736235148156e-03 0.0000000000000000e+00  1.0308781774834543e+00 5.8967896443362412e-05 0.0000000000000000e+00  1.0310349444610563e+00 -1.0066370319306368e-05 0.0000000000000000e+00  1.0304471257475043e+00 1.6273603022023582e-03 0.0000000000000000e+00  9.6399251304812394e-01 -2.4990995874746078e-01 0.0000000000000000e+00  1.0309700573811083e+00 -4.3313221968168716e-05 0.0000000000000000e+00  1.0310900791200706e+00 1.9103146047872639e-04 0.0000000000000000e+00  1.0310852082811062e+00 -8.3574768487688724e-05 0.0000000000000000e+00  1.0290766235754689e+00 4.4248943681046780e-04 0.0000000000000000e+00  1.0310607033100361e+00 7.1134972086495690e-06 0.0000000000000000e+00  1.0310914678257395e+00 -7.5999463947318621e-05 0.0000000000000000e+00  1.0296986953929999e+00 3.5529294931316779e-04 0.0000000000000000e+00  1.0309263735716478e+00 -1.1611423465686789e-04 0.0000000000000000e+00  1.0295882914511940e+00 -3.5523862579165050e-04 0.0000000000000000e+00  1.0308882095021941e+00 -9.0989530574709103e-04 0.0000000000000000e+00  6.5636101953835246e-01 -8.4812603991476436e-05 0.0000000000000000e+00  1.0290361683556701e+00 -1.6571633094450179e-03 0.0000000000000000e+00  1.0301448969208031e+00 -3.2342847995671725e-05 0.0000000000000000e+00  1.0229405756559060e+00 2.1696010967292095e-02 0.0000000000000000e+00  1.0320652985573091e+00 -1.7038918997351474e-03 0.0000000000000000e+00  1.0308968778256760e+00 -1.4625413822600653e-04 0.0000000000000000e+00  1.0308842039154011e+00 -6.8964961862607099e-05 0.0000000000000000e+00  1.0312803782560227e+00 1.7549416438285083e-04 0.0000000000000000e+00  1.0309831339033140e+00 1.4959528737163805e-04 0.0000000000000000e+00  1.0310115640043986e+00 2.2466382321931609e-04 0.0000000000000000e+00  1.0482617302304174e+00 1.0300396434768107e-02 0.0000000000000000e+00  1.0309136151262841e+00 1.2395031810290985e-03 0.0000000000000000e+00  1.0289200844350379e+00 8.9284550553455841e-04 0.0000000000000000e+00  1.0309288662986060e+00 -1.2987077447103535e-04 0.0000000000000000e+00  1.0316283706729905e+00 -9.2745716618393957e-04 0.0000000000000000e+00  1.0301958710954737e+00 -1.4677388997411897e-03 0.0000000000000000e+00  1.0321397988616889e+00 2.6452435281303815e-04 0.0000000000000000e+00  1.0433603537355929e+00 -4.2240167524066549e-03 0.0000000000000000e+00  1.0304646545584311e+00 -4.0506464283809933e-04 0.0000000000000000e+00  1.0271897429383070e+00 2.9056973885828010e-03 0.0000000000000000e+00  8.8994400636848914e-01 4.9821790159556434e-01 0.0000000000000000e+00  1.0389215122549136e+00 3.8414403164663165e-03 0.0000000000000000e+00  1.0292231969635786e+00 8.3774804886157432e-04 0.0000000000000000e+00  1.0311361909296830e+00 1.6041908836418091e-05 0.0000000000000000e+00  1.0309875986788175e+00 -1.2599319214261844e-04 0.0000000000000000e+00  1.0121263016961999e+00 1.5912734191044012e-01 0.0000000000000000e+00  1.0287460697295523e+00 -2.1272321348355396e-03 0.0000000000000000e+00  1.0306366117483390e+00 2.4891754122097925e-04 0.0000000000000000e+00  1.0308073652187846e+00 -2.9880880754017389e-05 0.0000000000000000e+00  1.0317266305662878e+00 7.2938518303100803e-04 0.0000000000000000e+00  1.1347500934603107e+00 4.3192097420721214e-02 0.0000000000000000e+00  1.0310122859976520e+00 -8.1590969730787393e-05 0.0000000000000000e+00  1.0309194352029951e+00 7.0778092833530175e-05 0.0000000000000000e+00  1.0310885218172945e+00 2.2180593162532828e-04 0.0000000000000000e+00  1.0308522453890163e+00 -1.1095721083456934e-04 0.0000000000000000e+00  1.0255327182028933e+00 -6.3285139344049241e-03 0.0000000000000000e+00  1.0247768102206372e+00 -8.0416939296728727e-04 0.0000000000000000e+00  1.0288922746436044e+00 -1.0032060705148567e-03 0.0000000000000000e+00  1.0315538737230359e+00 1.4572973507342060e-03 0.0000000000000000e+00  1.0296913325231716e+00 -1.8468718482896391e-05 0.0000000000000000e+00  1.0310203413212524e+00 -2.7173641062220112e-06 0.0000000000000000e+00  1.0381588652443938e+00 1.6468075239136556e-03 0.0000000000000000e+00  1.0309788103469375e+00 -1.4490095045590633e-04 0.0000000000000000e+00  1.0309928833660822e+00 -3.2147049920492151e-04 0.0000000000000000e+00  1.2416150127453232e+00 3.7853737978136910e-02 0.0000000000000000e+00  1.0310560886210132e+00 -1.6293967999507923e-04 0.0000000000000000e+00  1.0311366425389334e+00 -1.2227469322117389e-04 0.0000000000000000e+00  1.0309642963027583e+00 1.0350382951219617e-05 0.0000000000000000e+00  1.0136403235597697e+00 4.1886891634981670e-03 0.0000000000000000e+00  1.0306601079347817e+00 3.7715804965151965e-04 0.0000000000000000e+00  1.0246605449112016e+00 -1.2056819174792245e-02 0.0000000000000000e+00  1.0273369095711535e+00 -8.0178323285524434e-04 0.0000000000000000e+00  7.9791000319330696e-01 -3.4750887760796406e-01 0.0000000000000000e+00  1.1223498840426258e+00 -5.0480104191662406e-02 0.0000000000000000e+00  1.0254201309093061e+00 2.9144012680385749e-03 0.0000000000000000e+00  1.0264045810483737e+00 1.6647978907820371e-03 0.0000000000000000e+00  1.3031454059183729e+00 2.9206451885240975e-01 0.0000000000000000e+00  1.1384947304145350e+00 1.3432570239957137e-01 0.0000000000000000e+00  1.0343583909600362e+00 -5.8765053485329835e-03 0.0000000000000000e+00  1.3920115567013147e+00 -1.5637095005019894e-01 0.0000000000000000e+00  1.2768662944635039e+00 -3.4100734741446259e-01 0.0000000000000000e+00  1.1291791091198340e+00 -1.5487469031795750e-01 0.0000000000000000e+00  1.0278284374458742e+00 -2.7895729195019470e-03 0.0000000000000000e+00  1.0234966249392727e+00 -3.4775567613008090e-03 0.0000000000000000e+00  1.0297857013988394e+00 -5.5881008801229415e-05 0.0000000000000000e+00  1.0295272855669479e+00 2.8991183961288178e-04 0.0000000000000000e+00  1.0310465456538918e+00 -2.9997757023064649e-04 0.0000000000000000e+00  1.0252894577384761e+00 -1.7670457491188042e-03 0.0000000000000000e+00  1.4062408800415209e+00 -5.9300230404349677e-05 0.0000000000000000e+00  1.0322592177852186e+00 -1.6817627529090048e-04 0.0000000000000000e+00  1.0333762480451754e+00 2.6751866174995293e-03 0.0000000000000000e+00  1.4062616380445390e+00 4.8901005633828065e-05 0.0000000000000000e+00  1.0311711061997997e+00 -1.0158582598408077e-04 0.0000000000000000e+00  1.0308615602526396e+00 -1.4381637979419754e-04 0.0000000000000000e+00  1.2171080988554202e+00 -2.3131181179232525e-02 0.0000000000000000e+00  1.0309427320788493e+00 1.8611666887388578e-04 0.0000000000000000e+00  9.2882149070724407e-01 2.0016150236608810e-01 0.0000000000000000e+00  1.0317430242293333e+00 -2.3733577411563721e-04 0.0000000000000000e+00  1.0326657215077915e+00 -6.4138439143246575e-03 0.0000000000000000e+00  1.0331201574570104e+00 8.7246875798164788e-04 0.0000000000000000e+00  1.0069156370861334e+00 -9.0588242327803905e-03 0.0000000000000000e+00  1.0310881351606347e+00 2.7063329652010762e-04 0.0000000000000000e+00  1.0260747432294568e+00 -1.0113847818700556e-03 0.0000000000000000e+00  1.034291688224495