<?xml version="1.0"?>
<VTKFile type="UnstructuredGrid"  version="0.1"  >
<UnstructuredGrid>
<Piece  NumberOfPoints="2446" NumberOfCells="4585">
<Points>
<DataArray  type="Float64"  NumberOfComponents="3"  format="ascii">0 0.41 0  0 0 0  2.2 0 0  2.2 0.41 0  0.2404508497187474 0.2293892626146237 0  0.25 0.2 0  0.2404508497187474 0.1706107373853764 0  0.2154508497187474 0.1524471741852423 0  0.1845491502812526 0.1524471741852423 0  0.1595491502812526 0.1706107373853764 0  0.15 0.2 0  0.1595491502812526 0.2293892626146237 0  0.1845491502812527 0.2475528258147577 0  0.2154508497187474 0.2475528258147577 0  1.1 0 0  1.1 0.41 0  0 0.205 0  0.55 0 0  0.55 0.41 0  0.275 0 0  0.275 0.41 0  1.65 0.41 0  1.65 0 0  0.8250000000000001 0.41 0  0.8250000000000001 0 0  1.375 0 0  1.375 0.41 0  1.925 0 0  1.925 0.41 0  1.5125 0.205 0  1.7875 0.205 0  0.6875 0.205 0  0.9625000000000001 0.205 0  1.2375 0.205 0  2.2 0.205 0  0.4687002074688797 0.2068568464730291 0  1.99375 0.2152743902439024 0  2.0625 0 0  2.0625 0.41 0  2.2 0.3075 0  0.4125 0 0  0.4125 0.41 0  1.7875 0.41 0  1.375 0.1486128048780488 0  1.5125 0 0  1.7875 0 0  1.5125 0.41 0  0.8250000000000001 0.2613871951219511 0  0.9625000000000001 0.41 0  0.9625000000000001 0 0  0.6875 0.41 0  0.6875 0 0  0.1375 0 0  0.1375 0.41 0  1.2375 0 0  1.1 0.1486128048780487 0  1.2375 0.41 0  1.65 0.1486128048780487 0  1.126715909090909 0.2793064024390244 0  1.676715909090909 0.2793064024390244 0  0.8517159090909092 0.1306935975609756 0  1.348284090909091 0.2793064024390244 0  0.34375 0.3032389320646208 0  1.894702181800738 0.1282910975492754 0  2.092797818199262 0.1282910975492754 0  1.85625 0.3075 0  0.61875 0.3075 0  0.61875 0.1025 0  0.3648540804333487 0.1240075933101478 0  0 0.3075 0  0 0.1025 0  2.099172119769978 0.25625 0  0.48125 0.09238439620688085 0  0.5781001037344399 0.2059284232365146 0  0.48125 0.3196743479159776 0  0.7265881057911006 0.3055240343720796 0  1.99375 0.08395950269330846 0  1.459960956013612 0.3075 0  1.569025960719943 0.2986889805672169 0  0.75625 0.08213100772579164 0  1.03125 0.3278689922742084 0  0.923871252904788 0.3078247185783941 0  1.959375 0.3126371951219512 0  1.749222215368287 0.1025 0  1.275777784631713 0.1025 0  2.2 0.1025 0  1.225938124459196 0.3075 0  1.550777784631713 0.1025 0  1.000777784631713 0.1025 0  1.44375 0.07430640243902442 0  1.16875 0.07430640243902437 0  1.899250267340833 0.2229966846119207 0  0.1020898364287272 0.3140258291809757 0  1.766482954545455 0.2934032012195123 0  0.3405058858996321 0.2119987970531874 0  0.7710785630958338 0.1710968191298857 0  1.046078563095834 0.2389031808701144 0  0.2 0.3400647632937836 0  1.421109702350723 0.2261157654379721 0  0.2800464974185557 0.08982544815605742 0  0.098916018031319 0.09171660955420841 0  2.13125 0 0  2.118919042110979 0.3422084711244843 0  1.30625 0.41 0  0.89375 0 0  1.597888256393107 0.2173787389261347 0  0.20625 0 0  1.829299675393195 0.07400700849299596 0  1.71875 0.41 0  1.16875 0.41 0  2.038220665644273 0.332420740103091 0  0.34375 0 0  0.417496017710808 0.2696595573092803 0  0.2 0.07687845740457822 0  0.9295982307099278 0.1343158415898188 0  0.07390688010811153 0.1697064032433452 0  0.5238366813727013 0.2578302467013575 0  0.05452951551825875 0.25625 0  0.5229630068078351 0.1548816096928243 0  1.452769549894695 0.1548122580621249 0  1.369219062229598 0.07430640243902442 0  1.30625 0 0  0.8504409521244898 0.3356935975609756 0  0.8821881244591965 0.205 0  1.720943423819132 0.1714577452753128 0  1.157188124459196 0.205 0  1.094219062229598 0.07430640243902437 0  1.03125 0 0  1.304056576180868 0.1714577452753128 0  1.67579304192913 0.07430640243902437 0  0.2751941921308361 0.3346083473122598 0  1.209670467133757 0.1362100266964769 0  1.025335513626278 0.1700681449722324 0  0.7562500000000001 0.41 0  1.58125 0 0  0.7567170593862014 0.2409196493502535 0  0.6926714215682891 0.1272249611432207 0  0.4139715849905988 0.3397932387114203 0  0.9840787304190477 0.2717749043358119 0  0.06875000000000001 0.41 0  0 0.35875 0  0.9281250000000001 0.06276726142697993 0  0.5507396469029935 0.3219409231578227 0  0.5504468037989405 0.09136885600634273 0  1.58125 0.41 0  1.631724228912893 0.3381867502687533 0  1.825608881788174 0.14499488549201 0  1.85625 0 0  1.44375 0 0  1.44375 0.41 0  1.85625 0.41 0  2.13125 0.41 0  0.7562500000000001 0 0  0.89375 0.41 0  0.4812500000000001 0 0  0.34375 0.41 0  0.4812500000000001 0.41 0  0.20625 0.41 0  0.06875000000000001 0 0  1.16875 0 0  0.61875 0 0  0.61875 0.41 0  1.03125 0.41 0  1.71875 0 0  1.99375 0 0  1.99375 0.41 0  1.340625 0.3489494290853124 0  1.134375 0.3489494290853123 0  1.700180620188976 0.3438659752031281 0  2.135782184673599 0.07126652247502523 0  1.668441847249787 0.2129203728327609 0  1.295782514339747 0.2378437748815763 0  0.8233075729931248 0.06842334294821524 0  1.409375 0.3520314716057996 0  0.403505597322782 0.182067236678212 0  0.378125 0.05794951541303489 0  0.3043468223249023 0.1518321115979534 0  2.129248544730567 0.1906135162504124 0  2.060771381434487 0.1989445750470348 0  2.013252586573865 0.1496169464686054 0  1.942766402200229 0.1734448904596831 0  1.895522487186454 0.06076163953489683 0  2.069553871656643 0.06605731020975725 0  1.274680914880868 0.3520219391081363 0  1.614713220494657 0.09473434380863296 0  0.7899021319497519 0.3149123934144827 0  0.69518737419149 0.0634051089053758 0  0.2971740475496061 0.2592172353407536 0  1.72990325744076 0.2380068107952482 0  1.356580098625191 0.2120393231351682 0  2.034370752044885 0.2668681600792073 0  1.51768709249349 0.3426260931494756 0  1.561883724969884 0.1650446847858835 0  1.197344062229598 0.2523725417393646 0  1.804085235518364 0.3468178408964637 0  1.817887819205233 0.2589243285818559 0  1.905897727272727 0.3485060975609756 0  0.6719798073392919 0.2688965171178177 0  0 0.05125 0  0.653125 0.35875 0  0.6396896119294488 0.1627615407790282 0  0.4274150154087412 0.1242548552168279 0  1.192836486056382 0.3562350748565544 0  0.8279124365364005 0.183856489168822 0  1.097485222388854 0.2083571153401724 0  1.28257088594801 0.2944411014911587 0  1.474860187679412 0.2504218616229368 0  1.406767003493824 0.2829282258560709 0  0.446875 0.04619219810344041 0  0.515625 0.04585361801037557 0  0.592043440706648 0.05125 0  1.845656689180403 0.1998310418452388 0  2.144958525570388 0.2909790873294231 0  0.6171090763650112 0.2492366900333857 0  2.2 0.15375 0  0.5145586920831158 0.3648371739579888 0  1.57794966442982 0.3540357145964566 0  0.721875 0.3633107922168974 0  0.0496154796471391 0.333125 0  0.5843750000000001 0.3662560860076676 0  0.5810878747760798 0.1474002776121195 0  1.508991196088596 0.1421783375065625 0  0.8840670607017558 0.2640994375393898 0  0.09776612425612034 0.2204896805326566 0  1.50436820029908 0.06143401634903343 0  1.223857000523521 0.0823554862453532 0  1.153316824384777 0.1289850171317837 0  2.148922302309752 0.1258841779285271 0  0.309375 0.04312325590431198 0  1.621993280276081 0.2841214267927899 0  1.550118654119087 0.2461998729100966 0  1.327182649291491 0.1216967252533594 0  1.051977450479407 0.1221382572915816 0  1.753125 0.04556020050186112 0  1.271875 0.04556020050186116 0  0.9816084133102366 0.05126138213476004 0  1.039051841454368 0.0572224914831029 0  0.9719230514536006 0.3480477870845102 0  1.94956388244759 0.1180512551534177 0  1.949997712993411 0.04965831614304109 0  1.771961817615021 0.1530278789497521 0  1.909246823951428 0.2812757146784527 0  0.2459536687882397 0.04668633953831142 0  1.948575539857022 0.2445328248721197 0  1.697271520964565 0.1233917627620729 0  0.7964897648514618 0.1211426571931604 0  1.065625 0.3689344961371042 0  1.085849084308977 0.3170853572226867 0  0.4702981435440001 0.260434880697798 0  1.577403511714593 0.05463601888079143 0  0.05622663515370135 0.05493816910862376 0  0.3267207591099919 0.3566194660323104 0  0.9003051618565143 0.3564049499960621 0  1.751571320346033 0.3651102912045228 0  0.1583785085108421 0.2994699345738728 0  0.1455283439499995 0.3542795598723423 0  2.2 0.35875 0  0.2347662494194072 0.298325008655211 0  0.1527284455616188 0.1065771775690181 0  0.1382139529076665 0.05427454456341477 0  0.8749341636311069 0.05110114999892954 0  0.643661668713109 0.05693499781019222 0  1.466879772203159 0.3611261772912453 0  1.990280163552011 0.3564754268533217 0  1.17471064520912 0.2990917256188288 0  0.5202693090594349 0.206382495511728 0  0 0.25625 0  2.2 0.25625 0  2.2 0.05125 0  0 0.15375 0  1.853978576207987 0.35875 0  0.9787513713939683 0.1487523696999336 0  0.240625 0.3722153812029779 0  1.515638456102889 0.2882700110184686 0  0.09048297387599738 0.3637717362208066 0  2.150453692751374 0.2387066338105111 0  1.323782677156475 0.04897634338873398 0  0.8074131292871642 0.3624701995505916 0  1.409375 0.03715320121951221 0  1.406484531114799 0.1087852750766809 0  1.134375 0.03715320121951218 0  1.627401732573545 0.04552157221025036 0  0.1170173172005315 0.1427610859166811 0  2.045405893604797 0.1105340662939892 0  1.255408269734577 0.1577307500159216 0  2.028125 0.03707597992059326 0  0.4743610090857199 0.1421513964721819 0  0.9354010469015898 0.250631300585664 0  0.04420832937638274 0.128125 0  0.8922386349349938 0.0992956419364831 0  0.1197849154434487 0.2663398672460083 0  1.248258025468107 0.2565907092181813 0  0.3746885856929528 0.370723531618974 0  1.203125 0.0366132337404304 0  0.5724622277005015 0.2751253816079333 0  0.3365425205162783 0.08395777655057959 0  2.072662025974815 0.2975086504196739 0  0.4581080832182547 0.3648371739579888 0  0.3874522734668214 0.2295447548840689 0  0.7827853612484443 0.04106550386289586 0  1.887722846421017 0.1760882698830035 0  1.472640588990488 0.1118278026240017 0  1.865937103925594 0.2604137786483804 0  1.463913572748262 0.2030442564990043 0  1.376426316059077 0.3186741374914345 0  0.6641993820150034 0.3141688596240831 0  0.2943117490824315 0.2130987422685822 0  0.3478153998082709 0.1666571081082676 0  0.3427990510599805 0.2575950027870776 0  0.7997118993855807 0.2216171933356366 0  
[...]
<PointData  Vectors="f_31"> 
<DataArray  type="Float64"  Name="f_31"  NumberOfComponents="3" format="ascii">2.1782126155703271e-06 4.4638613945377343e-08 0.0000000000000000e+00  -2.2793524484189434e-06 -1.0150620353932433e-08 0.0000000000000000e+00  3.9339877535140633e-06 -6.1084187973418108e-09 0.0000000000000000e+00  -1.6605420306398173e-05 -2.1852679176127072e-08 0.0000000000000000e+00  -4.5890587174402791e-06 -2.5940227935264094e-06 0.0000000000000000e+00  -2.7689233128045756e-06 4.4567269178701512e-06 0.0000000000000000e+00  -2.3795225495753727e-06 6.0902608696613805e-07 0.0000000000000000e+00  -5.5440056116836842e-06 1.1620634010882057e-06 0.0000000000000000e+00  -4.6204871694250128e-06 -7.3884929372832679e-07 0.0000000000000000e+00  -1.2418607770288282e-06 -7.6323687145698802e-07 0.0000000000000000e+00  9.0973303520009335e-07 5.7747200396480830e-06 0.0000000000000000e+00  -7.4962274914800663e-06 -4.1220852944377205e-06 0.0000000000000000e+00  7.4388644766352742e-06 4.0157202397503930e-06 0.0000000000000000e+00  -1.3815734864331823e-05 -5.3810591315076143e-07 0.0000000000000000e+00  -2.5681246321945012e-06 -1.1363329759292066e-08 0.0000000000000000e+00  -1.0170777021204478e-07 -1.8631165244133202e-08 0.0000000000000000e+00  1.5000043133552536e+00 5.5409310496329859e-07 0.0000000000000000e+00  -3.9390114923402901e-06 2.0729816056975803e-06 0.0000000000000000e+00  1.5106337729149020e-06 -6.4444044273648528e-07 0.0000000000000000e+00  3.0312223744859233e-06 2.1029991103820851e-07 0.0000000000000000e+00  -2.3001432132149432e-06 -2.3846230904257007e-07 0.0000000000000000e+00  3.5521006116395125e-07 -3.3951291441019191e-09 0.0000000000000000e+00  1.6479953632409059e-07 7.5911661231944355e-10 0.0000000000000000e+00  1.8431839924902423e-06 -1.4058822093332420e-08 0.0000000000000000e+00  -4.9962208217976125e-06 2.6500929578774186e-08 0.0000000000000000e+00  -3.8464176102627262e-06 -2.0944429921530961e-09 0.0000000000000000e+00  -7.1612015724892517e-07 2.3668224217271836e-09 0.0000000000000000e+00  -2.9826766924294262e-06 6.0575970570648422e-09 0.0000000000000000e+00  -2.2728794789411893e-06 1.4567796262328783e-08 0.0000000000000000e+00  1.1259526079691959e+00 6.5482091385663394e-05 0.0000000000000000e+00  1.1260158187460303e+00 2.2258935345820876e-05 0.0000000000000000e+00  1.1459862286591331e+00 -1.6082439750572285e-02 0.0000000000000000e+00  1.1260285740313500e+00 -8.4044699188005119e-04 0.0000000000000000e+00  1.1256054682820813e+00 -4.2413712112713695e-05 0.0000000000000000e+00  1.1258773301813472e+00 -2.1598084478647197e-05 0.0000000000000000e+00  7.6359481133897802e-02 -8.5531348590118933e-03 0.0000000000000000e+00  1.1258155504118244e+00 -2.7178152713800176e-05 0.0000000000000000e+00  2.2824603023936229e-07 1.2193267164960270e-08 0.0000000000000000e+00  -9.5822514080034886e-07 -3.4979865476664432e-09 0.0000000000000000e+00  1.1250404005704639e+00 2.2362297136697582e-05 0.0000000000000000e+00  3.2322986468088605e-06 -1.0348235135314665e-08 0.0000000000000000e+00  3.7121508577787779e-06 -9.4311694392595913e-09 0.0000000000000000e+00  -6.0844052027715553e-06 3.3621603640571996e-09 0.0000000000000000e+00  1.1257866747185992e+00 5.4543318044738592e-05 0.0000000000000000e+00  -1.8925384564305407e-07 -2.3338661493410075e-08 0.0000000000000000e+00  -4.1698189785183472e-06 1.3792567912571186e-08 0.0000000000000000e+00  1.0577793148594170e-06 3.4127489736963438e-09 0.0000000000000000e+00  1.1299076490061455e+00 -2.0255477335107654e-04 0.0000000000000000e+00  -1.8755829939023060e-06 2.1601984061298000e-09 0.0000000000000000e+00  2.3932491713560172e-06 -6.8619959482052770e-09 0.0000000000000000e+00  -2.6933971387766063e-06 -9.1415415322073900e-09 0.0000000000000000e+00  -1.1333900652680557e-05 3.3445667938481217e-07 0.0000000000000000e+00  -4.2852396313111427e-06 6.0405187558417394e-07 0.0000000000000000e+00  -5.0475404046116653e-06 -5.8372777954001452e-07 0.0000000000000000e+00  2.9759756290975549e-07 1.7575315769797177e-09 0.0000000000000000e+00  1.1256459373087695e+00 -1.8678572651686974e-04 0.0000000000000000e+00  -1.6359369175369620e-06 -1.1500709983407692e-08 0.0000000000000000e+00  1.1259882570806699e+00 -3.4525328710615089e-06 0.0000000000000000e+00  1.1258338344047798e+00 -5.9449168482527015e-05 0.0000000000000000e+00  1.1256398046381455e+00 7.7026646833596048e-05 0.0000000000000000e+00  1.1249494882006725e+00 -4.0626469961237239e-03 0.0000000000000000e+00  1.1257752720220453e+00 -6.1263935736134736e-05 0.0000000000000000e+00  1.9705244831559179e+00 -1.6742524308699464e-01 0.0000000000000000e+00  1.1258431991097027e+00 -9.4267629278044546e-05 0.0000000000000000e+00  1.1258766432188188e+00 -1.2653760779678491e-04 0.0000000000000000e+00  1.1247843398766224e+00 4.5562485232439565e-05 0.0000000000000000e+00  1.1602902109780757e+00 9.6020600154137992e-02 0.0000000000000000e+00  1.1374212385471167e+00 -1.0635289538807310e-01 0.0000000000000000e+00  1.7198959766391710e+00 2.4185087429519087e-01 0.0000000000000000e+00  1.1249990360734816e+00 1.4020155727570285e-07 0.0000000000000000e+00  1.1249901278753298e+00 6.2526966850809001e-07 0.0000000000000000e+00  1.1257763682930708e+00 -6.1325867277255261e-05 0.0000000000000000e+00  1.4150894781045755e+00 2.8383693505357127e-01 0.0000000000000000e+00  1.0639839491684542e+00 -4.5438718378538745e-02 0.0000000000000000e+00  1.3891592430134765e+00 -1.9366304682887606e-01 0.0000000000000000e+00  1.1373388903746928e+00 1.3503780753879351e-02 0.0000000000000000e+00  1.1213230834693035e+00 -6.5343181544966791e-05 0.0000000000000000e+00  1.1253385717315529e+00 -6.6001016419859552e-05 0.0000000000000000e+00  1.1253841114438634e+00 1.8358665656978957e-04 0.0000000000000000e+00  1.1101755121330243e+00 -1.3682758490920927e-02 0.0000000000000000e+00  1.1197158244998948e+00 1.1998283675964918e-04 0.0000000000000000e+00  1.1257999253936271e+00 1.8443985762832185e-04 0.0000000000000000e+00  1.1248404878295823e+00 1.5756250510931355e-05 0.0000000000000000e+00  1.1245296931405033e+00 -1.7664189066376998e-04 0.0000000000000000e+00  1.1252577196724602e+00 -8.5633163884047783e-05 0.0000000000000000e+00  1.1248785286527956e+00 -1.6601125487564490e-04 0.0000000000000000e+00  1.1252809897974312e+00 2.7924870635214946e-05 0.0000000000000000e+00  1.1252628083264034e+00 1.1412493588894713e-04 0.0000000000000000e+00  1.1248677365798545e+00 -5.0443519352438122e-04 0.0000000000000000e+00  1.1137620360501377e+00 1.0977717837083929e-04 0.0000000000000000e+00  1.1135924259784891e+00 -4.1493191988927784e-05 0.0000000000000000e+00  1.1258650034231104e+00 -1.6517322827651816e-05 0.0000000000000000e+00  1.1912795513250851e+00 2.5949863073161583e-01 0.0000000000000000e+00  1.1254374140576431e+00 -3.4030981306093172e-06 0.0000000000000000e+00  -6.6010393574188508e-01 -5.6676334470570869e-02 0.0000000000000000e+00  1.1303737594180767e+00 -9.1819935220415899e-03 0.0000000000000000e+00  1.1259958822880887e+00 -2.7333104996701059e-04 0.0000000000000000e+00  1.4049588971359845e+00 2.2199037230589083e-01 0.0000000000000000e+00  1.1256952983820605e+00 -1.5086238620698073e-05 0.0000000000000000e+00  1.8849805233797716e+00 -1.0229522603795366e-01 0.0000000000000000e+00  1.1370167509911933e+00 -2.4326412530684763e-01 0.0000000000000000e+00  -5.8154349546461131e-07 1.2793158796018906e-08 0.0000000000000000e+00  1.1033146541253707e+00 5.0358561696865372e-05 0.0000000000000000e+00  -2.0179205972635084e-06 1.1300178169372873e-08 0.0000000000000000e+00  -6.9400191101019130e-06 1.6132798793278494e-08 0.0000000000000000e+00  1.1260109197523516e+00 3.3309353426985597e-05 0.0000000000000000e+00  1.0133838529961334e-06 -3.7726427125182487e-07 0.0000000000000000e+00  1.1130091673019766e+00 -1.4731944682366100e-04 0.0000000000000000e+00  -2.8868102683084687e-06 -9.1241535726810621e-11 0.0000000000000000e+00  -2.0933877160338763e-06 1.2965252826086400e-08 0.0000000000000000e+00  1.1169018761803944e+00 1.2036471385852676e-04 0.0000000000000000e+00  -2.6308722216909032e-07 3.2788904868020890e-07 0.0000000000000000e+00  1.6586802748753342e+00 -4.5207802027587224e-01 0.0000000000000000e+00  1.5159221700226211e+00 -2.7905446279643642e-01 0.0000000000000000e+00  1.1253201117475364e+00 -1.5087114262774869e-03 0.0000000000000000e+00  1.3347423668108629e+00 -9.5915012331649965e-02 0.0000000000000000e+00  1.4232218247601265e+00 -2.2905191825852922e-01 0.0000000000000000e+00  1.3746840247697281e+00 1.3399940778098629e-01 0.0000000000000000e+00  1.2834856265684711e+00 2.6933043652997968e-01 0.0000000000000000e+00  1.1257889572490429e+00 9.1030271257417584e-05 0.0000000000000000e+00  1.1127889252643834e+00 -1.4337928397358533e-04 0.0000000000000000e+00  -5.7487660139389523e-07 5.8811704053126068e-09 0.0000000000000000e+00  1.1134126815796246e+00 1.3588509425297994e-03 0.0000000000000000e+00  1.1270714551104724e+00 -1.9169450915406951e-03 0.0000000000000000e+00  1.1258758996374278e+00 6.7465168364338156e-05 0.0000000000000000e+00  1.1256071506287459e+00 -8.4316343061874424e-05 0.0000000000000000e+00  1.1137602218217242e+00 -2.8944371398077784e-06 0.0000000000000000e+00  -3.1844427984859699e-06 1.4058135936396813e-08 0.0000000000000000e+00  1.1256911957158671e+00 -2.2904259713755489e-05 0.0000000000000000e+00  1.1129793975294886e+00 -9.6204272647776374e-05 0.0000000000000000e+00  1.6552741973092195e+00 5.4245645043898935e-02 0.0000000000000000e+00  1.1257461456569087e+00 -5.0163042007357934e-05 0.0000000000000000e+00  1.1256732957281610e+00 -4.7556376134900514e-04 0.0000000000000000e+00  -2.0226804782877894e-06 -5.6818341774873382e-08 0.0000000000000000e+00  -1.3595281433258384e-05 -1.2442378373935683e-08 0.0000000000000000e+00  1.1369726581636976e+00 -2.3427000078533665e-03 0.0000000000000000e+00  1.1343456646512242e+00 -3.0278630088971002e-02 0.0000000000000000e+00  1.4400988481346215e+00 -2.0553021286393519e-01 0.0000000000000000e+00  1.1263293978568678e+00 -3.0192770976607421e-04 0.0000000000000000e+00  -3.0219768499588432e-06 -3.0828455694289226e-07 0.0000000000000000e+00  6.5625070395038010e-01 6.6668559628370242e-08 0.0000000000000000e+00  1.0893768854958192e+00 -5.8346357475200813e-04 0.0000000000000000e+00  1.1735058164040149e+00 -2.8248130219109451e-03 0.0000000000000000e+00  1.1602660632950426e+00 3.2481744951509432e-03 0.0000000000000000e+00  -5.1148238435311539e-06 3.2042595746760675e-09 0.0000000000000000e+00  1.1104450790679115e+00 3.5363126677585659e-04 0.0000000000000000e+00  1.1259164410261093e+00 -2.4465409992375794e-05 0.0000000000000000e+00  -3.6695666494509282e-06 2.2554842808530987e-08 0.0000000000000000e+00  -1.0604425537813627e-05 1.6970114375003359e-08 0.0000000000000000e+00  -4.5752751636620815e-06 -2.2563119130332973e-08 0.0000000000000000e+00  1.5251720510434932e-06 -4.2846045842012090e-09 0.0000000000000000e+00  -2.4278200836802606e-06 8.7447015902368310e-09 0.0000000000000000e+00  -1.7420554629001837e-06 9.8344507135264978e-09 0.0000000000000000e+00  7.9467069835218232e-07 -2.5440887573390301e-08 0.0000000000000000e+00  1.5513263783886002e-05 -5.5251464873008278e-07 0.0000000000000000e+00  7.6312655242876583e-06 -6.8117273675814089e-07 0.0000000000000000e+00  3.4752802976486066e-06 6.2751141868419769e-07 0.0000000000000000e+00  -2.9843169302798959e-06 -4.9396065524726073e-07 0.0000000000000000e+00  8.1455618319366030e-07 1.1809934411636447e-07 0.0000000000000000e+00  -2.6529176817014904e-07 1.2278932446524296e-08 0.0000000000000000e+00  -1.8864013217551529e-05 9.9498031515185338e-07 0.0000000000000000e+00  -1.4484547524338624e-05 -8.9122593425908820e-07 0.0000000000000000e+00  -8.7155345859789069e-07 1.5659284861840333e-09 0.0000000000000000e+00  -7.6137189477746115e-06 -3.1048588674079669e-08 0.0000000000000000e+00  -2.1732453884018626e-06 5.6175155179673651e-09 0.0000000000000000e+00  -7.2598768967699959e-07 -5.7020520613105190e-09 0.0000000000000000e+00  1.0845248185486398e+00 -5.7588062217970693e-06 0.0000000000000000e+00  1.0855308938343273e+00 2.7767907720741654e-05 0.0000000000000000e+00  1.0994798303401616e+00 3.4060035723866725e-05 0.0000000000000000e+00  1.1089071837004778e+00 -2.6880953181913057e-04 0.0000000000000000e+00  1.1259718901876070e+00 6.3435425835258892e-05 0.0000000000000000e+00  1.1256351421465898e+00 -2.4156799570495466e-05 0.0000000000000000e+00  1.0987672453621686e+00 -3.9440197228241105e-03 0.0000000000000000e+00  1.0738150111163176e+00 6.7947586524164379e-05 0.0000000000000000e+00  -2.8233609940011917e-01 1.0921703646474624e-01 0.0000000000000000e+00  1.5179017979073504e+00 1.8903962111674216e-01 0.0000000000000000e+00  3.6828932889929022e-01 -1.8349493032804332e-01 0.0000000000000000e+00  1.1258033784960810e+00 -3.3317321042456515e-05 0.0000000000000000e+00  1.1258769371431752e+00 -3.0305118391833296e-05 0.0000000000000000e+00  1.1259740651335310e+00 -7.9610470186318691e-05 0.0000000000000000e+00  1.1258913231137417e+00 -4.4817518017075193e-05 0.0000000000000000e+00  1.0836106543915893e+00 6.7163227672729594e-05 0.0000000000000000e+00  1.0991092248040972e+00 -3.1356788628645894e-04 0.0000000000000000e+00  1.0745218337571616e+00 2.1631950127048546e-04 0.0000000000000000e+00  1.1241774418421848e+00 -1.4745425480443356e-04 0.0000000000000000e+00  1.1273505115472047e+00 4.7086044204482699e-03 0.0000000000000000e+00  1.0628214041113024e+00 -3.2683540133664146e-02 0.0000000000000000e+00  7.8664815049163317e-01 5.3916448090129271e-02 0.0000000000000000e+00  1.1258684542260335e+00 1.8452937091893936e-05 0.0000000000000000e+00  1.1255821562318040e+00 -3.9926060126965137e-05 0.0000000000000000e+00  1.1258378210510520e+00 1.6411651127428477e-05 0.0000000000000000e+00  1.1027107667951737e+00 1.3938368031744117e-04 0.0000000000000000e+00  1.1259651760581295e+00 7.5010069122830630e-05 0.0000000000000000e+00  1.1257293144962333e+00 -2.1675676094642024e-05 0.0000000000000000e+00  1.0928216839922498e+00 -1.2923185210144786e-04 0.0000000000000000e+00  1.1258098261364422e+00 1.8236629334444918e-05 0.0000000000000000e+00  1.0872264194666581e+00 7.8794547337644369e-05 0.0000000000000000e+00  1.1692780907433260e+00 1.2574566180723999e-02 0.0000000000000000e+00  6.5624823912079921e-01 -6.5425564775036020e-08 0.0000000000000000e+00  9.9644096616984035e-01 4.2221654814097655e-02 0.0000000000000000e+00  1.1582002779082556e+00 -2.6084849700565287e-02 0.0000000000000000e+00  1.7653272993845524e+00 5.4586197860673746e-01 0.0000000000000000e+00  1.0545391079596282e+00 1.1955786504383553e-05 0.0000000000000000e+00  1.1279948402937074e+00 -4.3201548527370360e-03 0.0000000000000000e+00  1.1256553475618476e+00 -2.0095485728354267e-04 0.0000000000000000e+00  1.1257245781588849e+00 2.0773280467972231e-05 0.0000000000000000e+00  1.1257528982092666e+00 -1.1046863153794730e-05 0.0000000000000000e+00  1.1258076544808713e+00 -9.0554299043817203e-05 0.0000000000000000e+00  1.0517420015022134e+00 1.4989756781869279e-01 0.0000000000000000e+00  8.2139666245291676e-01 1.0739512107958440e-02 0.0000000000000000e+00  9.1322841732215254e-01 -7.7447843243606540e-02 0.0000000000000000e+00  1.1259315339326272e+00 -1.8926607397762320e-05 0.0000000000000000e+00  1.1257173252077515e+00 -5.3348768570838657e-05 0.0000000000000000e+00  1.2442172934455182e+00 -3.4353011048078049e-04 0.0000000000000000e+00  1.1256860644309861e+00 6.8131094888051461e-06 0.0000000000000000e+00  8.4696013725699737e-01 -9.1349919614238228e-03 0.0000000000000000e+00  1.0658675090003678e+00 3.8032960909569537e-04 0.0000000000000000e+00  9.8886224174807680e-01 1.4022396829629183e-02 0.0000000000000000e+00  9.4276928872915100e-01 9.6471356343122622e-02 0.0000000000000000e+00  8.5660252460887865e-01 5.1130032152907547e-02 0.0000000000000000e+00  1.2680236183385527e+00 1.1325519963976234e-03 0.0000000000000000e+00  1.1259165358813177e+00 1.3578898450948316e-04 0.0000000000000000e+00  1.1275729819790659e+00 -4.2236711950155670e-04 0.0000000000000000e+00  1.2254282318407095e+00 1.8209360071475567e-01 0.0000000000000000e+00  1.0876203204655543e+00 1.3977505174624728e-04 0.0000000000000000e+00  1.1198943734684021e+00 -2.1793630129717832e-04 0.0000000000000000e+00  1.1258146284536710e+00 -6.9382736600144237e-05 0.0000000000000000e+00  1.1257931341975063e+00 -1.5007759630811666e-04 0.0000000000000000e+00  1.3959693592961133e+00 3.4532795233060791e-02 0.0000000000000000e+00  1.1256623375889925e+00 1.2348979551502886e-04 0.0000000000000000e+00  1.1257710087755033e+00 2.7076767686918131e-05 0.0000000000000000e+00  1.1257613160122830e+00 1.9428575189885007e-05 0.0000000000000000e+00  1.1255136541460597e+00 -3.3699939179694145e-04 0.0000000000000000e+00  9.9732866747517779e-01 -4.0493653928232819e-05 0.0000000000000000e+00  9.9705923490823900e-01 -2.5018260448064804e-04 0.0000000000000000e+00  1.0408822308376280e+00 -5.2538930294051861e-04 0.0000000000000000e+00  1.0703023521502359e+00 -1.1269143720957858e-04 0.0000000000000000e+00  1.0886270296001586e+00 3.1680995321506768e-05 0.0000000000000000e+00  1.1257557460750187e+00 -6.3678149800621840e-05 0.0000000000000000e+00  1.0272313662101638e+00 -6.6943967167872333e-05 0.0000000000000000e+00  1.1259697422676924e+00 2.1492380396399788e-05 0.0000000000000000e+00  1.1258107243625461e+00 -5.6547895496852706e-06 0.0000000000000000e+00  1.3364897041183392e+00 -8.9447519690302554e-02 0.0000000000000000e+00  1.1258747208957283e+00 -2.4716729908690894e-05 0.0000000000000000e+00  1.1257995497520175e+00 -1.6023738235884616e-05 0.0000000000000000e+00  1.1239334072802598e+00 -8.4595114579502691e-03 0.0000000000000000e+00  9.5148758825043556e-01 4.8201212121097341e-05 0.0000000000000000e+00  1.1243076853079301e+00 3.1152732697339300e-05 0.0000000000000000e+00  1.4669307227378905e+00 -3.9743517527079808e-01 0.0000000000000000e+00  1.0577586730774011e+00 3.1035215612409563e-05 0.0000000000000000e+00  7.3678376515933319e-01 -7.6030128081176360e-02 0.0000000000000000e+00  1.4182378393747539e+00 -6.9901013033410328e-02 0.0000000000000000e+00  1.0523824215984097e+00 6.6212740250110611e-04 0.0000000000000000e+00  9.9071211797055880e-01 -1.1864612887600410e-04 0.0000000000000000e+00  1.5427012909897140e+00 4.7402698700607854e-01 0.0000000000000000e+00  1.0104682254401653e+00 1.7967094684227317e-01 0.0000000000000000e+00  1.0389392404105995e+00 3.0352297443225757e-04 0.0000000000000000e+00  1.9251077791691693e+00 2.3298621627108410e-01 0.0000000000000000e+00  1.4510431189225728e+00 -5.0613271619532385e-01 0.0000000000000000e+00  9.7085543416751230e-01 -1.8912577156384242e-01 0.0000000000000000e+00  1.0359071883526338e+00 -1.2171019697828427e-03 0.0000000000000000e+00  1.0070069088653288e+00 -5.9752234779940655e-02 0.0000000000000000e+00  1.0236032103020622e+00 -1.2242106994572323e-04 0.0000000000000000e+00  1.0532514028899620e+00 3.5938224493246845e-04 0.0000000000000000e+00  1.1256504021025324e+00 -2.4093706741663091e-05 0.0000000000000000e+00  6.9825026930735046e-01 -4.7932778269578185e-03 0.0000000000000000e+00  1.4062435009178285e+00 2.9444340552368569e-07 0.0000000000000000e+00  1.1259157360313079e+00 6.0723255494059863e-05 0.0000000000000000e+00  1.0400275483415875e+00 -7.6487380284735599e-04 0.0000000000000000e+00  1.4062430174730618e+00 4.7930620455334086e-07 0.0000000000000000e+00  1.0397183974596187e+00 4.6905606898032032e-05 0.0000000000000000e+00  1.1255231585065428e+00 -8.1873662917999383e-04 0.0000000000000000e+00  1.1376492140642471e+00 5.2079560809694808e-02 0.0000000000000000e+00  1.1258608559272905e+00 -1.0267170350160425e-05 0.0000000000000000e+00  7.1755551988977173e-01 1.0035530032615053e-01 0.0000000000000000e+00  1.1257867633437910e+00 -1.4280241602577228e-05 0.0000000000000000e+00  1.0243536385554484e+00 -2.5911718701610215e-04 0.0000000000000000e+00  1.0107314696388203e+00 2.4589870491427196e-03 0.0000000000000000e+00  9.0415982333167355e-01 1.4006991649656298e-04 0.0000000000000000e+00  1.1255768611904238e+00 7.4791092678919697e-05 0.0000000000000000e+00  9.0496423455486519e-01 -5.6586790180640345e-05 0.0000000000000000e+00  9.952810721805