<?xml version="1.0"?>
<VTKFile type="UnstructuredGrid"  version="0.1"  >
<UnstructuredGrid>
<Piece  NumberOfPoints="2446" NumberOfCells="4585">
<Points>
<DataArray  type="Float64"  NumberOfComponents="3"  format="ascii">0 0.41 0  0 0 0  2.2 0 0  2.2 0.41 0  0.2404508497187474 0.2293892626146237 0  0.25 0.2 0  0.2404508497187474 0.1706107373853764 0  0.2154508497187474 0.1524471741852423 0  0.1845491502812526 0.1524471741852423 0  0.1595491502812526 0.1706107373853764 0  0.15 0.2 0  0.1595491502812526 0.2293892626146237 0  0.1845491502812527 0.2475528258147577 0  0.2154508497187474 0.2475528258147577 0  1.1 0 0  1.1 0.41 0  0 0.205 0  0.55 0 0  0.55 0.41 0  0.275 0 0  0.275 0.41 0  1.65 0.41 0  1.65 0 0  0.8250000000000001 0.41 0  0.8250000000000001 0 0  1.375 0 0  1.375 0.41 0  1.925 0 0  1.925 0.41 0  1.5125 0.205 0  1.7875 0.205 0  0.6875 0.205 0  0.9625000000000001 0.205 0  1.2375 0.205 0  2.2 0.205 0  0.4687002074688797 0.2068568464730291 0  1.99375 0.2152743902439024 0  2.0625 0 0  2.0625 0.41 0  2.2 0.3075 0  0.4125 0 0  0.4125 0.41 0  1.7875 0.41 0  1.375 0.1486128048780488 0  1.5125 0 0  1.7875 0 0  1.5125 0.41 0  0.8250000000000001 0.2613871951219511 0  0.9625000000000001 0.41 0  0.9625000000000001 0 0  0.6875 0.41 0  0.6875 0 0  0.1375 0 0  0.1375 0.41 0  1.2375 0 0  1.1 0.1486128048780487 0  1.2375 0.41 0  1.65 0.1486128048780487 0  1.126715909090909 0.2793064024390244 0  1.676715909090909 0.2793064024390244 0  0.8517159090909092 0.1306935975609756 0  1.348284090909091 0.2793064024390244 0  0.34375 0.3032389320646208 0  1.894702181800738 0.1282910975492754 0  2.092797818199262 0.1282910975492754 0  1.85625 0.3075 0  0.61875 0.3075 0  0.61875 0.1025 0  0.3648540804333487 0.1240075933101478 0  0 0.3075 0  0 0.1025 0  2.099172119769978 0.25625 0  0.48125 0.09238439620688085 0  0.5781001037344399 0.2059284232365146 0  0.48125 0.3196743479159776 0  0.7265881057911006 0.3055240343720796 0  1.99375 0.08395950269330846 0  1.459960956013612 0.3075 0  1.569025960719943 0.2986889805672169 0  0.75625 0.08213100772579164 0  1.03125 0.3278689922742084 0  0.923871252904788 0.3078247185783941 0  1.959375 0.3126371951219512 0  1.749222215368287 0.1025 0  1.275777784631713 0.1025 0  2.2 0.1025 0  1.225938124459196 0.3075 0  1.550777784631713 0.1025 0  1.000777784631713 0.1025 0  1.44375 0.07430640243902442 0  1.16875 0.07430640243902437 0  1.899250267340833 0.2229966846119207 0  0.1020898364287272 0.3140258291809757 0  1.766482954545455 0.2934032012195123 0  0.3405058858996321 0.2119987970531874 0  0.7710785630958338 0.1710968191298857 0  1.046078563095834 0.2389031808701144 0  0.2 0.3400647632937836 0  1.421109702350723 0.2261157654379721 0  0.2800464974185557 0.08982544815605742 0  0.098916018031319 0.09171660955420841 0  2.13125 0 0  2.118919042110979 0.3422084711244843 0  1.30625 0.41 0  0.89375 0 0  1.597888256393107 0.2173787389261347 0  0.20625 0 0  1.829299675393195 0.07400700849299596 0  1.71875 0.41 0  1.16875 0.41 0  2.038220665644273 0.332420740103091 0  0.34375 0 0  0.417496017710808 0.2696595573092803 0  0.2 0.07687845740457822 0  0.9295982307099278 0.1343158415898188 0  0.07390688010811153 0.1697064032433452 0  0.5238366813727013 0.2578302467013575 0  0.05452951551825875 0.25625 0  0.5229630068078351 0.1548816096928243 0  1.452769549894695 0.1548122580621249 0  1.369219062229598 0.07430640243902442 0  1.30625 0 0  0.8504409521244898 0.3356935975609756 0  0.8821881244591965 0.205 0  1.720943423819132 0.1714577452753128 0  1.157188124459196 0.205 0  1.094219062229598 0.07430640243902437 0  1.03125 0 0  1.304056576180868 0.1714577452753128 0  1.67579304192913 0.07430640243902437 0  0.2751941921308361 0.3346083473122598 0  1.209670467133757 0.1362100266964769 0  1.025335513626278 0.1700681449722324 0  0.7562500000000001 0.41 0  1.58125 0 0  0.7567170593862014 0.2409196493502535 0  0.6926714215682891 0.1272249611432207 0  0.4139715849905988 0.3397932387114203 0  0.9840787304190477 0.2717749043358119 0  0.06875000000000001 0.41 0  0 0.35875 0  0.9281250000000001 0.06276726142697993 0  0.5507396469029935 0.3219409231578227 0  0.5504468037989405 0.09136885600634273 0  1.58125 0.41 0  1.631724228912893 0.3381867502687533 0  1.825608881788174 0.14499488549201 0  1.85625 0 0  1.44375 0 0  1.44375 0.41 0  1.85625 0.41 0  2.13125 0.41 0  0.7562500000000001 0 0  0.89375 0.41 0  0.4812500000000001 0 0  0.34375 0.41 0  0.4812500000000001 0.41 0  0.20625 0.41 0  0.06875000000000001 0 0  1.16875 0 0  0.61875 0 0  0.61875 0.41 0  1.03125 0.41 0  1.71875 0 0  1.99375 0 0  1.99375 0.41 0  1.340625 0.3489494290853124 0  1.134375 0.3489494290853123 0  1.700180620188976 0.3438659752031281 0  2.135782184673599 0.07126652247502523 0  1.668441847249787 0.2129203728327609 0  1.295782514339747 0.2378437748815763 0  0.8233075729931248 0.06842334294821524 0  1.409375 0.3520314716057996 0  0.403505597322782 0.182067236678212 0  0.378125 0.05794951541303489 0  0.3043468223249023 0.1518321115979534 0  2.129248544730567 0.1906135162504124 0  2.060771381434487 0.1989445750470348 0  2.013252586573865 0.1496169464686054 0  1.942766402200229 0.1734448904596831 0  1.895522487186454 0.06076163953489683 0  2.069553871656643 0.06605731020975725 0  1.274680914880868 0.3520219391081363 0  1.614713220494657 0.09473434380863296 0  0.7899021319497519 0.3149123934144827 0  0.69518737419149 0.0634051089053758 0  0.2971740475496061 0.2592172353407536 0  1.72990325744076 0.2380068107952482 0  1.356580098625191 0.2120393231351682 0  2.034370752044885 0.2668681600792073 0  1.51768709249349 0.3426260931494756 0  1.561883724969884 0.1650446847858835 0  1.197344062229598 0.2523725417393646 0  1.804085235518364 0.3468178408964637 0  1.817887819205233 0.2589243285818559 0  1.905897727272727 0.3485060975609756 0  0.6719798073392919 0.2688965171178177 0  0 0.05125 0  0.653125 0.35875 0  0.6396896119294488 0.1627615407790282 0  0.4274150154087412 0.1242548552168279 0  1.192836486056382 0.3562350748565544 0  0.8279124365364005 0.183856489168822 0  1.097485222388854 0.2083571153401724 0  1.28257088594801 0.2944411014911587 0  1.474860187679412 0.2504218616229368 0  1.406767003493824 0.2829282258560709 0  0.446875 0.04619219810344041 0  0.515625 0.04585361801037557 0  0.592043440706648 0.05125 0  1.845656689180403 0.1998310418452388 0  2.144958525570388 0.2909790873294231 0  0.6171090763650112 0.2492366900333857 0  2.2 0.15375 0  0.5145586920831158 0.3648371739579888 0  1.57794966442982 0.3540357145964566 0  0.721875 0.3633107922168974 0  0.0496154796471391 0.333125 0  0.5843750000000001 0.3662560860076676 0  0.5810878747760798 0.1474002776121195 0  1.508991196088596 0.1421783375065625 0  0.8840670607017558 0.2640994375393898 0  0.09776612425612034 0.2204896805326566 0  1.50436820029908 0.06143401634903343 0  1.223857000523521 0.0823554862453532 0  1.153316824384777 0.1289850171317837 0  2.148922302309752 0.1258841779285271 0  0.309375 0.04312325590431198 0  1.621993280276081 0.2841214267927899 0  1.550118654119087 0.2461998729100966 0  1.327182649291491 0.1216967252533594 0  1.051977450479407 0.1221382572915816 0  1.753125 0.04556020050186112 0  1.271875 0.04556020050186116 0  0.9816084133102366 0.05126138213476004 0  1.039051841454368 0.0572224914831029 0  0.9719230514536006 0.3480477870845102 0  1.94956388244759 0.1180512551534177 0  1.949997712993411 0.04965831614304109 0  1.771961817615021 0.1530278789497521 0  1.909246823951428 0.2812757146784527 0  0.2459536687882397 0.04668633953831142 0  1.948575539857022 0.2445328248721197 0  1.697271520964565 0.1233917627620729 0  0.7964897648514618 0.1211426571931604 0  1.065625 0.3689344961371042 0  1.085849084308977 0.3170853572226867 0  0.4702981435440001 0.260434880697798 0  1.577403511714593 0.05463601888079143 0  0.05622663515370135 0.05493816910862376 0  0.3267207591099919 0.3566194660323104 0  0.9003051618565143 0.3564049499960621 0  1.751571320346033 0.3651102912045228 0  0.1583785085108421 0.2994699345738728 0  0.1455283439499995 0.3542795598723423 0  2.2 0.35875 0  0.2347662494194072 0.298325008655211 0  0.1527284455616188 0.1065771775690181 0  0.1382139529076665 0.05427454456341477 0  0.8749341636311069 0.05110114999892954 0  0.643661668713109 0.05693499781019222 0  1.466879772203159 0.3611261772912453 0  1.990280163552011 0.3564754268533217 0  1.17471064520912 0.2990917256188288 0  0.5202693090594349 0.206382495511728 0  0 0.25625 0  2.2 0.25625 0  2.2 0.05125 0  0 0.15375 0  1.853978576207987 0.35875 0  0.9787513713939683 0.1487523696999336 0  0.240625 0.3722153812029779 0  1.515638456102889 0.2882700110184686 0  0.09048297387599738 0.3637717362208066 0  2.150453692751374 0.2387066338105111 0  1.323782677156475 0.04897634338873398 0  0.8074131292871642 0.3624701995505916 0  1.409375 0.03715320121951221 0  1.406484531114799 0.1087852750766809 0  1.134375 0.03715320121951218 0  1.627401732573545 0.04552157221025036 0  0.1170173172005315 0.1427610859166811 0  2.045405893604797 0.1105340662939892 0  1.255408269734577 0.1577307500159216 0  2.028125 0.03707597992059326 0  0.4743610090857199 0.1421513964721819 0  0.9354010469015898 0.250631300585664 0  0.04420832937638274 0.128125 0  0.8922386349349938 0.0992956419364831 0  0.1197849154434487 0.2663398672460083 0  1.248258025468107 0.2565907092181813 0  0.3746885856929528 0.370723531618974 0  1.203125 0.0366132337404304 0  0.5724622277005015 0.2751253816079333 0  0.3365425205162783 0.08395777655057959 0  2.072662025974815 0.2975086504196739 0  0.4581080832182547 0.3648371739579888 0  0.3874522734668214 0.2295447548840689 0  0.7827853612484443 0.04106550386289586 0  1.887722846421017 0.1760882698830035 0  1.472640588990488 0.1118278026240017 0  1.865937103925594 0.2604137786483804 0  1.463913572748262 0.2030442564990043 0  1.376426316059077 0.3186741374914345 0  0.6641993820150034 0.3141688596240831 0  0.2943117490824315 0.2130987422685822 0  0.3478153998082709 0.1666571081082676 0  0.3427990510599805 0.2575950027870776 0  0.7997118993855807 0.2216171933356366 0  
[...]
<PointData  Vectors="f_31"> 
<DataArray  type="Float64"  Name="f_31"  NumberOfComponents="3" format="ascii">1.1439451336898580e-05 1.7103548135498845e-05 0.0000000000000000e+00  1.8040539141617818e-05 -3.0188068952236441e-05 0.0000000000000000e+00  5.8230843242341441e-07 1.3952061023525841e-06 0.0000000000000000e+00  -2.1129586395209348e-05 2.5440480214681320e-06 0.0000000000000000e+00  1.5415301601607123e-04 -3.6225617070004407e-05 0.0000000000000000e+00  1.2728725785396698e-04 1.4227170603600043e-05 0.0000000000000000e+00  1.3029234565868771e-04 2.0660297263474007e-05 0.0000000000000000e+00  3.9316690048499882e-05 -6.2655961462736767e-05 0.0000000000000000e+00  -3.5082547607064471e-05 -1.7946439253362084e-05 0.0000000000000000e+00  8.5553116411445817e-05 -6.8845488634817323e-05 0.0000000000000000e+00  -4.3683625309494121e-05 1.7254051438739530e-05 0.0000000000000000e+00  8.0974083385176599e-05 7.6715941556883743e-05 0.0000000000000000e+00  6.5372751865981811e-06 1.9612147249090418e-05 0.0000000000000000e+00  2.8929316754422259e-05 3.0125952728333651e-05 0.0000000000000000e+00  -4.2610537321685308e-06 -1.0808343333222874e-06 0.0000000000000000e+00  3.3518293793916644e-07 1.0029569094006424e-06 0.0000000000000000e+00  1.5000053726047400e+00 1.0769761457087682e-06 0.0000000000000000e+00  -1.0698379613368732e-05 1.8002474477255731e-06 0.0000000000000000e+00  8.0361991880509891e-06 1.0615384595223464e-06 0.0000000000000000e+00  1.0348215027650311e-05 4.2399397471690671e-06 0.0000000000000000e+00  2.7048958274518577e-06 -8.7457211053205031e-07 0.0000000000000000e+00  -2.8066473682217052e-06 -8.2928822152058686e-07 0.0000000000000000e+00  -2.5205324822960996e-06 1.0874259392666336e-06 0.0000000000000000e+00  -4.2872846039557130e-06 -8.2528699748150563e-07 0.0000000000000000e+00  -7.4753436255393512e-06 2.4955605908978175e-06 0.0000000000000000e+00  -8.1750675210680778e-06 1.4833352017872902e-07 0.0000000000000000e+00  -2.6697037551694737e-06 -4.7256014936476782e-06 0.0000000000000000e+00  -2.3353505275960820e-06 -1.9591175784286169e-06 0.0000000000000000e+00  -9.1969566515065043e-06 -1.7479742505011335e-06 0.0000000000000000e+00  1.0485319731949085e+00 6.3907839266680881e-07 0.0000000000000000e+00  1.0484850932711058e+00 -3.1747177083270464e-05 0.0000000000000000e+00  1.0478520812309149e+00 -5.8816029139501901e-04 0.0000000000000000e+00  1.0484075324529811e+00 -8.3822564183123340e-05 0.0000000000000000e+00  1.0484603695024932e+00 4.2437184065003711e-05 0.0000000000000000e+00  1.0497425573058308e+00 3.6145834058376049e-05 0.0000000000000000e+00  1.0294811656528338e+00 -4.4173264496995979e-03 0.0000000000000000e+00  1.0485453900427424e+00 4.8268418772828974e-05 0.0000000000000000e+00  -1.4610099066338409e-07 -8.0881435235404798e-07 0.0000000000000000e+00  -1.3622567627282215e-06 -4.4366482137267645e-07 0.0000000000000000e+00  1.0498884527544776e+00 -1.5505779192744535e-03 0.0000000000000000e+00  1.1657456424754031e-06 -9.9819264163955743e-07 0.0000000000000000e+00  2.2612762362140897e-07 5.8805374115520899e-07 0.0000000000000000e+00  -8.7620737514523551e-06 -2.4581688634253212e-07 0.0000000000000000e+00  1.0484570812205365e+00 4.8603228221608985e-05 0.0000000000000000e+00  -5.6845424875015299e-06 2.3394034883025559e-06 0.0000000000000000e+00  -7.5233781133438127e-06 2.6188742742474134e-07 0.0000000000000000e+00  4.8402764306470776e-07 -1.0165583886345382e-06 0.0000000000000000e+00  1.0484750079883898e+00 -2.1313790615923984e-04 0.0000000000000000e+00  -3.6073450868921201e-06 8.0780917812943994e-07 0.0000000000000000e+00  2.0728673861695490e-06 1.8689476577299811e-07 0.0000000000000000e+00  4.5101893121826794e-06 -1.0484878358712757e-06 0.0000000000000000e+00  -7.9492710937430905e-06 -2.9249716631052258e-06 0.0000000000000000e+00  -2.8797217017812665e-05 3.3761815870869447e-06 0.0000000000000000e+00  -2.9133414592418475e-05 8.9047658375120182e-07 0.0000000000000000e+00  2.4232239942885176e-08 9.4650088990181984e-08 0.0000000000000000e+00  1.0483230513332740e+00 -4.1962147274151054e-05 0.0000000000000000e+00  -6.4340213471755461e-07 -3.0281392314801614e-07 0.0000000000000000e+00  1.0485508643389214e+00 -2.0448113769567455e-05 0.0000000000000000e+00  1.0483130754877432e+00 -7.1993698660325530e-05 0.0000000000000000e+00  1.0485664349538224e+00 6.3834460093237886e-06 0.0000000000000000e+00  1.0484422853896098e+00 -1.3012174709936528e-04 0.0000000000000000e+00  1.0485027318495332e+00 1.7528731676646900e-04 0.0000000000000000e+00  1.1016002041006032e+00 -1.2881201122435765e-01 0.0000000000000000e+00  1.0483740690687562e+00 1.5193282656959057e-05 0.0000000000000000e+00  1.0486189244104187e+00 4.8614277546453087e-04 0.0000000000000000e+00  1.0484344230249409e+00 1.5622459175821976e-05 0.0000000000000000e+00  1.0492129996958375e+00 -2.0739863940656108e-03 0.0000000000000000e+00  1.0477623112436449e+00 8.4032695142633590e-04 0.0000000000000000e+00  1.0348522351229712e+00 1.0221639068278976e-01 0.0000000000000000e+00  1.1249996860275733e+00 -9.9473640238169729e-07 0.0000000000000000e+00  1.1249866558078543e+00 2.9978054825881107e-06 0.0000000000000000e+00  1.0486085499854263e+00 -1.9022066344525802e-04 0.0000000000000000e+00  1.0504840985669766e+00 1.2556411665157637e-02 0.0000000000000000e+00  1.0453347455374178e+00 -1.4634201278127970e-03 0.0000000000000000e+00  1.0557241224470617e+00 -1.5622582487847498e-02 0.0000000000000000e+00  1.0487777355534937e+00 -6.3927579895277863e-04 0.0000000000000000e+00  1.0486147864959878e+00 1.8684737550251566e-04 0.0000000000000000e+00  1.0482157080842669e+00 2.8473756776326358e-05 0.0000000000000000e+00  1.0482326273333180e+00 -1.1386011156135249e-06 0.0000000000000000e+00  1.0478958856434302e+00 -2.7807006769899951e-04 0.0000000000000000e+00  1.0474936587839001e+00 -1.3653186109325801e-05 0.0000000000000000e+00  1.0486682097022226e+00 -5.6756876059191299e-05 0.0000000000000000e+00  1.0487117475885614e+00 -2.1369377099901945e-04 0.0000000000000000e+00  1.0482518847533453e+00 -2.9465418745890434e-04 0.0000000000000000e+00  1.0487004137851972e+00 1.6876287604219593e-04 0.0000000000000000e+00  1.0500767350830833e+00 1.6928019395639044e-03 0.0000000000000000e+00  1.0487894090993812e+00 -8.5372067615157975e-05 0.0000000000000000e+00  1.0483901180193484e+00 -1.5182189303842826e-04 0.0000000000000000e+00  1.0483945737101008e+00 -1.3757683054462714e-04 0.0000000000000000e+00  1.0483591135079489e+00 2.5710176990851718e-04 0.0000000000000000e+00  1.0477787071240745e+00 -1.1830106963766983e-04 0.0000000000000000e+00  1.0484055638367702e+00 -1.7032425179230377e-05 0.0000000000000000e+00  1.0405129484082132e+00 5.7850095404456914e-01 0.0000000000000000e+00  1.0483315762617373e+00 -1.1006601307851114e-05 0.0000000000000000e+00  8.5098681089285189e-01 -5.7679382509568236e-02 0.0000000000000000e+00  1.0482328404513257e+00 -1.6556820744267379e-04 0.0000000000000000e+00  1.0484436669291834e+00 -3.8936609753723317e-05 0.0000000000000000e+00  1.3227339914185696e+00 1.0597788900505636e-01 0.0000000000000000e+00  1.0484743733896491e+00 9.0541511746846883e-05 0.0000000000000000e+00  1.2731706584996196e+00 1.7985793752465870e-01 0.0000000000000000e+00  1.0091833387027129e+00 -5.8544165219245203e-01 0.0000000000000000e+00  1.6677972600726061e-06 -8.8644184789972419e-07 0.0000000000000000e+00  1.0468652962210303e+00 -5.4696268881202902e-04 0.0000000000000000e+00  -1.2063840754691774e-06 -9.2468886595342787e-07 0.0000000000000000e+00  -1.2406572042885747e-05 -3.7662051779349074e-07 0.0000000000000000e+00  1.0485014302695790e+00 -3.1988010160984812e-05 0.0000000000000000e+00  8.2966197696282472e-06 6.1355670397679469e-07 0.0000000000000000e+00  1.0481016660531894e+00 -1.0905784109180671e-04 0.0000000000000000e+00  -9.3600238382590121e-06 8.0664517003471383e-07 0.0000000000000000e+00  7.4884354958884188e-07 -5.3997022507943412e-07 0.0000000000000000e+00  1.0480477358888698e+00 5.4577718159085195e-04 0.0000000000000000e+00  -6.4883035283857035e-06 -1.4106793749565169e-06 0.0000000000000000e+00  1.0338615188347047e+00 -4.4213190922070336e-02 0.0000000000000000e+00  1.3920595898279486e+00 -1.0317156559281085e-01 0.0000000000000000e+00  1.0483705770875293e+00 -1.2850316297539755e-04 0.0000000000000000e+00  1.3356873400892042e+00 -1.3269531756422298e-01 0.0000000000000000e+00  1.0446471038816592e+00 -7.7718649470085799e-03 0.0000000000000000e+00  1.3737656954779367e+00 1.2631064101270420e-01 0.0000000000000000e+00  1.0423220530186841e+00 3.6036971984331019e-03 0.0000000000000000e+00  1.0484362203180775e+00 5.3174065647507513e-05 0.0000000000000000e+00  1.0473768300924327e+00 -1.2197409121826716e-03 0.0000000000000000e+00  -3.1232401718989333e-06 1.9815528352482017e-06 0.0000000000000000e+00  1.0481746165390116e+00 -2.0628963639138221e-04 0.0000000000000000e+00  1.0484953903850471e+00 -1.1399631189941142e-04 0.0000000000000000e+00  1.0484051282297522e+00 1.4896482086646986e-05 0.0000000000000000e+00  1.0483430965762763e+00 1.2835342392590305e-05 0.0000000000000000e+00  1.0483816440575771e+00 -3.5197867336914064e-04 0.0000000000000000e+00  -5.6861830718359292e-06 -1.3598155023770116e-06 0.0000000000000000e+00  1.0485253509629284e+00 1.0072825988473582e-04 0.0000000000000000e+00  1.0483563267216516e+00 -1.7025411778186065e-04 0.0000000000000000e+00  1.2792366745242700e+00 -9.8968075107348299e-02 0.0000000000000000e+00  1.0484070341996514e+00 1.3419020950738097e-04 0.0000000000000000e+00  1.0483970289865827e+00 -6.5507165111870893e-05 0.0000000000000000e+00  -1.7590060452671371e-06 -1.3273788158014385e-06 0.0000000000000000e+00  -2.0606339706686191e-05 1.9331344145988549e-07 0.0000000000000000e+00  1.0484536387101284e+00 -4.4861555435793572e-04 0.0000000000000000e+00  1.0479985058562615e+00 -2.7992964524792950e-05 0.0000000000000000e+00  1.0800703863404149e+00 -3.2359996467388082e-02 0.0000000000000000e+00  1.0484749295363338e+00 -4.1633933391975404e-05 0.0000000000000000e+00  -2.1300354178087804e-05 -2.7286340676009266e-05 0.0000000000000000e+00  6.5625246136369864e-01 2.3146632053727561e-05 0.0000000000000000e+00  1.0475697923773857e+00 -4.4548632736141595e-04 0.0000000000000000e+00  1.0516280027608349e+00 -5.5055686593155091e-03 0.0000000000000000e+00  1.0484068539865177e+00 3.4156457980065264e-03 0.0000000000000000e+00  -1.4250725173363444e-05 1.4621613236918169e-07 0.0000000000000000e+00  1.0476381800580508e+00 -7.0683585115708110e-05 0.0000000000000000e+00  1.0483449702513177e+00 -8.3036199402588377e-05 0.0000000000000000e+00  -5.9777776589797128e-06 -1.0106232901212753e-06 0.0000000000000000e+00  -1.4533803553726777e-05 1.3374720012129389e-06 0.0000000000000000e+00  -6.0991528620815103e-06 1.6873456490884125e-06 0.0000000000000000e+00  6.7695751808439825e-07 -7.2381952033340576e-07 0.0000000000000000e+00  -1.0532054201602828e-05 5.8838235088040306e-07 0.0000000000000000e+00  1.3298060501766581e-07 -1.3017003742833012e-06 0.0000000000000000e+00  -2.9722255331093031e-06 -3.4412688987867618e-07 0.0000000000000000e+00  6.1710373545085591e-06 3.9517773389732320e-08 0.0000000000000000e+00  3.3819463804931170e-06 -1.6412198677599658e-06 0.0000000000000000e+00  -1.0851345613196789e-05 6.2695109512036310e-07 0.0000000000000000e+00  5.2100163311672527e-06 -9.0886468188391021e-07 0.0000000000000000e+00  -4.0790106291110347e-05 1.5807362566161951e-05 0.0000000000000000e+00  -2.5796044605916723e-06 -5.2933158089955063e-07 0.0000000000000000e+00  -7.0189950169050629e-06 6.2610439675849353e-07 0.0000000000000000e+00  -1.9312153017472751e-06 1.9355684688237071e-06 0.0000000000000000e+00  -6.9057875158882273e-06 -9.5774324713003673e-07 0.0000000000000000e+00  -1.1060582407978733e-05 1.2063170840199562e-06 0.0000000000000000e+00  -7.1205505807740246e-07 -8.6727325570173176e-07 0.0000000000000000e+00  2.2650501944765455e-07 -5.5804076451467983e-07 0.0000000000000000e+00  1.0460417534899344e+00 1.8701757314862064e-03 0.0000000000000000e+00  1.0464249721755940e+00 2.0088476648375483e-04 0.0000000000000000e+00  1.0478883106518848e+00 1.1238120841899628e-03 0.0000000000000000e+00  1.0479524939335279e+00 1.4462481012801917e-03 0.0000000000000000e+00  1.0484659428571204e+00 1.8388967530357770e-05 0.0000000000000000e+00  1.0485293322488520e+00 9.1318353713444421e-05 0.0000000000000000e+00  1.0477721449949349e+00 -1.4432879390715062e-04 0.0000000000000000e+00  1.0456016783480249e+00 2.2021808776623909e-03 0.0000000000000000e+00  9.9218136252569256e-01 1.6089131948881449e-02 0.0000000000000000e+00  1.1009772811095289e+00 4.2845219833201713e-02 0.0000000000000000e+00  9.2487546881435279e-01 3.7882305892586116e-01 0.0000000000000000e+00  1.0490048358811057e+00 2.1918404092881772e-04 0.0000000000000000e+00  1.0486882007863736e+00 1.3318001988786240e-04 0.0000000000000000e+00  1.0485684223116731e+00 1.3680422915748840e-04 0.0000000000000000e+00  1.0484378113430417e+00 4.8337066742636132e-05 0.0000000000000000e+00  1.0473372784706796e+00 -2.5950353584254781e-04 0.0000000000000000e+00  1.0470012322041322e+00 -2.7550857844723569e-04 0.0000000000000000e+00  1.0479677857907805e+00 1.0452683462328013e-03 0.0000000000000000e+00  1.0482937563418471e+00 8.0035344048864148e-05 0.0000000000000000e+00  1.0486646550892800e+00 -1.0451037927504204e-04 0.0000000000000000e+00  1.0473628582775012e+00 -5.2070991014223269e-04 0.0000000000000000e+00  1.0067204074706855e+00 -4.2681685038759404e-01 0.0000000000000000e+00  1.0484875622635241e+00 -1.8220465886068925e-05 0.0000000000000000e+00  1.0484958927100640e+00 8.1157951670251320e-05 0.0000000000000000e+00  1.0485344522411293e+00 8.5044313127155167e-05 0.0000000000000000e+00  1.0486292823517305e+00 -2.3164082273820818e-04 0.0000000000000000e+00  1.0484994266261556e+00 -4.2614888651547357e-05 0.0000000000000000e+00  1.0485289558516195e+00 -5.0077346818752897e-05 0.0000000000000000e+00  1.0479751481944199e+00 -4.1408972999939933e-04 0.0000000000000000e+00  1.0484514901670281e+00 -3.3666667380608851e-05 0.0000000000000000e+00  1.0471726476579575e+00 1.2559115413873494e-04 0.0000000000000000e+00  1.0483786891140467e+00 -1.1829841765297268e-03 0.0000000000000000e+00  6.5624680801488322e-01 -2.6519324293568769e-05 0.0000000000000000e+00  1.0453541248227689e+00 -3.6064806776599527e-04 0.0000000000000000e+00  1.0473262620788812e+00 -7.1520768420726985e-05 0.0000000000000000e+00  1.0375497214173408e+00 3.3082266535130044e-02 0.0000000000000000e+00  1.0487045355152014e+00 -4.4718075838186603e-04 0.0000000000000000e+00  1.0483265543932669e+00 -1.2766392570596826e-04 0.0000000000000000e+00  1.0483431872197160e+00 -4.6768997883573004e-05 0.0000000000000000e+00  1.0487213106112447e+00 1.1870575885773689e-04 0.0000000000000000e+00  1.0484279136047057e+00 3.8888804225212200e-05 0.0000000000000000e+00  1.0483550440471363e+00 8.9425860013457630e-05 0.0000000000000000e+00  1.0561887014360862e+00 1.1611371927876573e-02 0.0000000000000000e+00  1.0487626752227472e+00 1.7023275572950155e-03 0.0000000000000000e+00  1.0449010383254573e+00 5.2295846232396906e-04 0.0000000000000000e+00  1.0484032299138859e+00 -3.5378511863065055e-05 0.0000000000000000e+00  1.0487645189301424e+00 -8.5182006214827002e-04 0.0000000000000000e+00  1.0475204358425132e+00 -2.0059667317596009e-03 0.0000000000000000e+00  1.0497161370364909e+00 6.1757860904660560e-04 0.0000000000000000e+00  1.0535876926810126e+00 -5.3817399740607877e-03 0.0000000000000000e+00  1.0469312096720444e+00 2.9771477361039515e-05 0.0000000000000000e+00  1.0402045205263040e+00 9.8291942289152831e-05 0.0000000000000000e+00  9.6393141548556338e-01 6.7666521523939857e-02 0.0000000000000000e+00  1.0442595003213313e+00 9.0965237452445328e-04 0.0000000000000000e+00  1.0461992073593378e+00 1.1087824382187382e-03 0.0000000000000000e+00  1.0485154011333448e+00 -5.0187384007389908e-06 0.0000000000000000e+00  1.0484383813601512e+00 -1.1416300726675886e-04 0.0000000000000000e+00  1.2041778346305467e+00 1.7678417317379144e-01 0.0000000000000000e+00  1.0492460777268702e+00 -4.9779967062586099e-04 0.0000000000000000e+00  1.0482887003578569e+00 3.4863802338670291e-04 0.0000000000000000e+00  1.0483961137833577e+00 4.6981018480321179e-05 0.0000000000000000e+00  1.0490467528627840e+00 8.8496233739787471e-04 0.0000000000000000e+00  1.2026708770250720e+00 5.3035298052478252e-02 0.0000000000000000e+00  1.0484388816864718e+00 -1.3025274912868484e-04 0.0000000000000000e+00  1.0483617693654468e+00 -1.0211919520116747e-05 0.0000000000000000e+00  1.0485946283566827e+00 4.0634146434671854e-05 0.0000000000000000e+00  1.0483178481712807e+00 -7.5568504763847330e-05 0.0000000000000000e+00  1.0421790669561024e+00 -1.6409161600524497e-03 0.0000000000000000e+00  1.0433551814706130e+00 -7.0058879542844591e-04 0.0000000000000000e+00  1.0480840712006105e+00 -1.9366525168342392e-04 0.0000000000000000e+00  1.0480039426532619e+00 -8.9127309374637009e-05 0.0000000000000000e+00  1.0476257334655288e+00 4.0192751270266586e-04 0.0000000000000000e+00  1.0484564347826746e+00 1.4343438831829466e-04 0.0000000000000000e+00  1.0400794133467333e+00 -1.4965899037744853e-04 0.0000000000000000e+00  1.0484179022698565e+00 -6.5733123854476251e-05 0.0000000000000000e+00  1.0484905238678182e+00 -1.2204222223786557e-04 0.0000000000000000e+00  1.3017771478219133e+00 3.3855349929198086e-02 0.0000000000000000e+00  1.0485354212156877e+00 -5.9008528970279852e-05 0.0000000000000000e+00  1.0486211870989641e+00 -8.7003615985376348e-05 0.0000000000000000e+00  1.0483426934117501e+00 6.4384722391753294e-05 0.0000000000000000e+00  1.0456506209596712e+00 -5.8361747198366421e-04 0.0000000000000000e+00  1.0484838689852887e+00 1.8236706752593798e-04 0.0000000000000000e+00  1.0394828569725527e+00 -1.7691117312763446e-02 0.0000000000000000e+00  1.0448683530484977e+00 -1.8450038810269314e-04 0.0000000000000000e+00  6.9019111819453893e-01 -2.0032325356098810e-01 0.0000000000000000e+00  1.1767128930130966e+00 -6.2862029507640929e-02 0.0000000000000000e+00  1.0462788964092826e+00 5.9525242122437310e-05 0.0000000000000000e+00  1.0382844187205940e+00 4.5424457025207280e-04 0.0000000000000000e+00  1.3367667245885713e+00 4.1782361432758552e-01 0.0000000000000000e+00  1.1012293631741710e+00 2.1227704867075831e-01 0.0000000000000000e+00  1.0464222376638503e+00 -3.2642729348714306e-03 0.0000000000000000e+00  1.5094148448524636e+00 -1.0157416354643428e-01 0.0000000000000000e+00  1.3091801469886828e+00 -4.7518150291664740e-01 0.0000000000000000e+00  1.0789094119800304e+00 -2.3413622121711705e-01 0.0000000000000000e+00  1.0421480039073212e+00 -2.3660727871365407e-03 0.0000000000000000e+00  1.0466503976332191e+00 -4.1721877492542609e-04 0.0000000000000000e+00  1.0417377036918767e+00 5.7527881019314232e-04 0.0000000000000000e+00  1.0499159609766604e+00 6.9268009100900013e-04 0.0000000000000000e+00  1.0484354242326863e+00 -3.1123316320158154e-04 0.0000000000000000e+00  1.0404507064981843e+00 -2.5581286321735802e-03 0.0000000000000000e+00  1.4062449214548207e+00 -5.4697266535275680e-06 0.0000000000000000e+00  1.0498219343153661e+00 -4.2573708523504508e-04 0.0000000000000000e+00  1.0468801940380144e+00 4.1982016226825769e-03 0.0000000000000000e+00  1.4062457630306029e+00 5.3887690084665366e-06 0.0000000000000000e+00  1.0485919314798811e+00 3.9310161258954282e-04 0.0000000000000000e+00  1.0483124424584853e+00 -7.9271378928198085e-05 0.0000000000000000e+00  1.2713445502213492e+00 -1.0920726416757294e-02 0.0000000000000000e+00  1.0484466678423625e+00 4.5985896300535657e-05 0.0000000000000000e+00  7.3961608141960267e-01 3.0699788251075799e-01 0.0000000000000000e+00  1.0491539173413975e+00 -2.2199007036080663e-04 0.0000000000000000e+00  1.0473201982375648e+00 -9.4507631530252551e-04 0.0000000000000000e+00  1.0432179909244081e+00 2.5032652623853745e-03 0.0000000000000000e+00  1.0404087637052772e+00 2.4129860800827930e-03 0.0000000000000000e+00  1.0483015180755222e+00 -9.9707842863787431e-05 0.0000000000000000e+00  1.0410184097635449e+00 1.1482735698280584e-03 0.0000000000000000e+00  1.0432260507342985e+00 -