<?xml version="1.0"?>
<VTKFile type="UnstructuredGrid"  version="0.1"  >
<UnstructuredGrid>
<Piece  NumberOfPoints="2446" NumberOfCells="4585">
<Points>
<DataArray  type="Float64"  NumberOfComponents="3"  format="ascii">0 0.41 0  0 0 0  2.2 0 0  2.2 0.41 0  0.2404508497187474 0.2293892626146237 0  0.25 0.2 0  0.2404508497187474 0.1706107373853764 0  0.2154508497187474 0.1524471741852423 0  0.1845491502812526 0.1524471741852423 0  0.1595491502812526 0.1706107373853764 0  0.15 0.2 0  0.1595491502812526 0.2293892626146237 0  0.1845491502812527 0.2475528258147577 0  0.2154508497187474 0.2475528258147577 0  1.1 0 0  1.1 0.41 0  0 0.205 0  0.55 0 0  0.55 0.41 0  0.275 0 0  0.275 0.41 0  1.65 0.41 0  1.65 0 0  0.8250000000000001 0.41 0  0.8250000000000001 0 0  1.375 0 0  1.375 0.41 0  1.925 0 0  1.925 0.41 0  1.5125 0.205 0  1.7875 0.205 0  0.6875 0.205 0  0.9625000000000001 0.205 0  1.2375 0.205 0  2.2 0.205 0  0.4687002074688797 0.2068568464730291 0  1.99375 0.2152743902439024 0  2.0625 0 0  2.0625 0.41 0  2.2 0.3075 0  0.4125 0 0  0.4125 0.41 0  1.7875 0.41 0  1.375 0.1486128048780488 0  1.5125 0 0  1.7875 0 0  1.5125 0.41 0  0.8250000000000001 0.2613871951219511 0  0.9625000000000001 0.41 0  0.9625000000000001 0 0  0.6875 0.41 0  0.6875 0 0  0.1375 0 0  0.1375 0.41 0  1.2375 0 0  1.1 0.1486128048780487 0  1.2375 0.41 0  1.65 0.1486128048780487 0  1.126715909090909 0.2793064024390244 0  1.676715909090909 0.2793064024390244 0  0.8517159090909092 0.1306935975609756 0  1.348284090909091 0.2793064024390244 0  0.34375 0.3032389320646208 0  1.894702181800738 0.1282910975492754 0  2.092797818199262 0.1282910975492754 0  1.85625 0.3075 0  0.61875 0.3075 0  0.61875 0.1025 0  0.3648540804333487 0.1240075933101478 0  0 0.3075 0  0 0.1025 0  2.099172119769978 0.25625 0  0.48125 0.09238439620688085 0  0.5781001037344399 0.2059284232365146 0  0.48125 0.3196743479159776 0  0.7265881057911006 0.3055240343720796 0  1.99375 0.08395950269330846 0  1.459960956013612 0.3075 0  1.569025960719943 0.2986889805672169 0  0.75625 0.08213100772579164 0  1.03125 0.3278689922742084 0  0.923871252904788 0.3078247185783941 0  1.959375 0.3126371951219512 0  1.749222215368287 0.1025 0  1.275777784631713 0.1025 0  2.2 0.1025 0  1.225938124459196 0.3075 0  1.550777784631713 0.1025 0  1.000777784631713 0.1025 0  1.44375 0.07430640243902442 0  1.16875 0.07430640243902437 0  1.899250267340833 0.2229966846119207 0  0.1020898364287272 0.3140258291809757 0  1.766482954545455 0.2934032012195123 0  0.3405058858996321 0.2119987970531874 0  0.7710785630958338 0.1710968191298857 0  1.046078563095834 0.2389031808701144 0  0.2 0.3400647632937836 0  1.421109702350723 0.2261157654379721 0  0.2800464974185557 0.08982544815605742 0  0.098916018031319 0.09171660955420841 0  2.13125 0 0  2.118919042110979 0.3422084711244843 0  1.30625 0.41 0  0.89375 0 0  1.597888256393107 0.2173787389261347 0  0.20625 0 0  1.829299675393195 0.07400700849299596 0  1.71875 0.41 0  1.16875 0.41 0  2.038220665644273 0.332420740103091 0  0.34375 0 0  0.417496017710808 0.2696595573092803 0  0.2 0.07687845740457822 0  0.9295982307099278 0.1343158415898188 0  0.07390688010811153 0.1697064032433452 0  0.5238366813727013 0.2578302467013575 0  0.05452951551825875 0.25625 0  0.5229630068078351 0.1548816096928243 0  1.452769549894695 0.1548122580621249 0  1.369219062229598 0.07430640243902442 0  1.30625 0 0  0.8504409521244898 0.3356935975609756 0  0.8821881244591965 0.205 0  1.720943423819132 0.1714577452753128 0  1.157188124459196 0.205 0  1.094219062229598 0.07430640243902437 0  1.03125 0 0  1.304056576180868 0.1714577452753128 0  1.67579304192913 0.07430640243902437 0  0.2751941921308361 0.3346083473122598 0  1.209670467133757 0.1362100266964769 0  1.025335513626278 0.1700681449722324 0  0.7562500000000001 0.41 0  1.58125 0 0  0.7567170593862014 0.2409196493502535 0  0.6926714215682891 0.1272249611432207 0  0.4139715849905988 0.3397932387114203 0  0.9840787304190477 0.2717749043358119 0  0.06875000000000001 0.41 0  0 0.35875 0  0.9281250000000001 0.06276726142697993 0  0.5507396469029935 0.3219409231578227 0  0.5504468037989405 0.09136885600634273 0  1.58125 0.41 0  1.631724228912893 0.3381867502687533 0  1.825608881788174 0.14499488549201 0  1.85625 0 0  1.44375 0 0  1.44375 0.41 0  1.85625 0.41 0  2.13125 0.41 0  0.7562500000000001 0 0  0.89375 0.41 0  0.4812500000000001 0 0  0.34375 0.41 0  0.4812500000000001 0.41 0  0.20625 0.41 0  0.06875000000000001 0 0  1.16875 0 0  0.61875 0 0  0.61875 0.41 0  1.03125 0.41 0  1.71875 0 0  1.99375 0 0  1.99375 0.41 0  1.340625 0.3489494290853124 0  1.134375 0.3489494290853123 0  1.700180620188976 0.3438659752031281 0  2.135782184673599 0.07126652247502523 0  1.668441847249787 0.2129203728327609 0  1.295782514339747 0.2378437748815763 0  0.8233075729931248 0.06842334294821524 0  1.409375 0.3520314716057996 0  0.403505597322782 0.182067236678212 0  0.378125 0.05794951541303489 0  0.3043468223249023 0.1518321115979534 0  2.129248544730567 0.1906135162504124 0  2.060771381434487 0.1989445750470348 0  2.013252586573865 0.1496169464686054 0  1.942766402200229 0.1734448904596831 0  1.895522487186454 0.06076163953489683 0  2.069553871656643 0.06605731020975725 0  1.274680914880868 0.3520219391081363 0  1.614713220494657 0.09473434380863296 0  0.7899021319497519 0.3149123934144827 0  0.69518737419149 0.0634051089053758 0  0.2971740475496061 0.2592172353407536 0  1.72990325744076 0.2380068107952482 0  1.356580098625191 0.2120393231351682 0  2.034370752044885 0.2668681600792073 0  1.51768709249349 0.3426260931494756 0  1.561883724969884 0.1650446847858835 0  1.197344062229598 0.2523725417393646 0  1.804085235518364 0.3468178408964637 0  1.817887819205233 0.2589243285818559 0  1.905897727272727 0.3485060975609756 0  0.6719798073392919 0.2688965171178177 0  0 0.05125 0  0.653125 0.35875 0  0.6396896119294488 0.1627615407790282 0  0.4274150154087412 0.1242548552168279 0  1.192836486056382 0.3562350748565544 0  0.8279124365364005 0.183856489168822 0  1.097485222388854 0.2083571153401724 0  1.28257088594801 0.2944411014911587 0  1.474860187679412 0.2504218616229368 0  1.406767003493824 0.2829282258560709 0  0.446875 0.04619219810344041 0  0.515625 0.04585361801037557 0  0.592043440706648 0.05125 0  1.845656689180403 0.1998310418452388 0  2.144958525570388 0.2909790873294231 0  0.6171090763650112 0.2492366900333857 0  2.2 0.15375 0  0.5145586920831158 0.3648371739579888 0  1.57794966442982 0.3540357145964566 0  0.721875 0.3633107922168974 0  0.0496154796471391 0.333125 0  0.5843750000000001 0.3662560860076676 0  0.5810878747760798 0.1474002776121195 0  1.508991196088596 0.1421783375065625 0  0.8840670607017558 0.2640994375393898 0  0.09776612425612034 0.2204896805326566 0  1.50436820029908 0.06143401634903343 0  1.223857000523521 0.0823554862453532 0  1.153316824384777 0.1289850171317837 0  2.148922302309752 0.1258841779285271 0  0.309375 0.04312325590431198 0  1.621993280276081 0.2841214267927899 0  1.550118654119087 0.2461998729100966 0  1.327182649291491 0.1216967252533594 0  1.051977450479407 0.1221382572915816 0  1.753125 0.04556020050186112 0  1.271875 0.04556020050186116 0  0.9816084133102366 0.05126138213476004 0  1.039051841454368 0.0572224914831029 0  0.9719230514536006 0.3480477870845102 0  1.94956388244759 0.1180512551534177 0  1.949997712993411 0.04965831614304109 0  1.771961817615021 0.1530278789497521 0  1.909246823951428 0.2812757146784527 0  0.2459536687882397 0.04668633953831142 0  1.948575539857022 0.2445328248721197 0  1.697271520964565 0.1233917627620729 0  0.7964897648514618 0.1211426571931604 0  1.065625 0.3689344961371042 0  1.085849084308977 0.3170853572226867 0  0.4702981435440001 0.260434880697798 0  1.577403511714593 0.05463601888079143 0  0.05622663515370135 0.05493816910862376 0  0.3267207591099919 0.3566194660323104 0  0.9003051618565143 0.3564049499960621 0  1.751571320346033 0.3651102912045228 0  0.1583785085108421 0.2994699345738728 0  0.1455283439499995 0.3542795598723423 0  2.2 0.35875 0  0.2347662494194072 0.298325008655211 0  0.1527284455616188 0.1065771775690181 0  0.1382139529076665 0.05427454456341477 0  0.8749341636311069 0.05110114999892954 0  0.643661668713109 0.05693499781019222 0  1.466879772203159 0.3611261772912453 0  1.990280163552011 0.3564754268533217 0  1.17471064520912 0.2990917256188288 0  0.5202693090594349 0.206382495511728 0  0 0.25625 0  2.2 0.25625 0  2.2 0.05125 0  0 0.15375 0  1.853978576207987 0.35875 0  0.9787513713939683 0.1487523696999336 0  0.240625 0.3722153812029779 0  1.515638456102889 0.2882700110184686 0  0.09048297387599738 0.3637717362208066 0  2.150453692751374 0.2387066338105111 0  1.323782677156475 0.04897634338873398 0  0.8074131292871642 0.3624701995505916 0  1.409375 0.03715320121951221 0  1.406484531114799 0.1087852750766809 0  1.134375 0.03715320121951218 0  1.627401732573545 0.04552157221025036 0  0.1170173172005315 0.1427610859166811 0  2.045405893604797 0.1105340662939892 0  1.255408269734577 0.1577307500159216 0  2.028125 0.03707597992059326 0  0.4743610090857199 0.1421513964721819 0  0.9354010469015898 0.250631300585664 0  0.04420832937638274 0.128125 0  0.8922386349349938 0.0992956419364831 0  0.1197849154434487 0.2663398672460083 0  1.248258025468107 0.2565907092181813 0  0.3746885856929528 0.370723531618974 0  1.203125 0.0366132337404304 0  0.5724622277005015 0.2751253816079333 0  0.3365425205162783 0.08395777655057959 0  2.072662025974815 0.2975086504196739 0  0.4581080832182547 0.3648371739579888 0  0.3874522734668214 0.2295447548840689 0  0.7827853612484443 0.04106550386289586 0  1.887722846421017 0.1760882698830035 0  1.472640588990488 0.1118278026240017 0  1.865937103925594 0.2604137786483804 0  1.463913572748262 0.2030442564990043 0  1.376426316059077 0.3186741374914345 0  0.6641993820150034 0.3141688596240831 0  0.2943117490824315 0.2130987422685822 0  0.3478153998082709 0.1666571081082676 0  0.3427990510599805 0.2575950027870776 0  0.7997118993855807 0.2216171933356366 0  
[...]
<PointData  Vectors="f_31"> 
<DataArray  type="Float64"  Name="f_31"  NumberOfComponents="3" format="ascii">2.1385629027544197e-06 9.5884574924233705e-08 0.0000000000000000e+00  -2.2258417928740066e-06 -3.3254895192294484e-08 0.0000000000000000e+00  4.1909592511483645e-06 -6.3343479423596496e-08 0.0000000000000000e+00  -1.7427391775415069e-05 -2.8089846614168561e-08 0.0000000000000000e+00  -9.0072406246017567e-06 3.6900944547003078e-06 0.0000000000000000e+00  -1.5558771556160171e-05 2.0332546978334992e-05 0.0000000000000000e+00  -1.5682067112832063e-05 1.3199598373855558e-05 0.0000000000000000e+00  -8.6600586009852993e-06 -6.4553445800134265e-06 0.0000000000000000e+00  -1.3228014886688178e-05 -6.4873476183237244e-06 0.0000000000000000e+00  -7.6550933230158126e-06 1.6894881004343959e-06 0.0000000000000000e+00  9.2310215810657548e-07 8.2842568087976641e-06 0.0000000000000000e+00  -5.9878357863872276e-06 -3.0684694887357521e-06 0.0000000000000000e+00  8.5864715696984265e-06 4.2352703606453798e-06 0.0000000000000000e+00  -1.3287932426618254e-05 1.8207423854315473e-06 0.0000000000000000e+00  -2.8465755528700047e-06 -5.4895956573647740e-08 0.0000000000000000e+00  -2.7917857236148952e-07 1.5957222963641524e-08 0.0000000000000000e+00  1.5000041682257386e+00 1.4128918081629179e-06 0.0000000000000000e+00  -1.5175213406409788e-05 -3.1673899833540269e-07 0.0000000000000000e+00  -4.4922944419083588e-06 2.6787912843641043e-08 0.0000000000000000e+00  1.5086900572810130e-05 -1.9135931774865212e-06 0.0000000000000000e+00  7.3097691922697274e-06 1.9401766357758776e-06 0.0000000000000000e+00  2.4645800817447124e-07 1.6760422990271782e-08 0.0000000000000000e+00  -2.8846087531719978e-07 -1.7955796564264908e-08 0.0000000000000000e+00  9.7224988331495436e-07 -7.6578272298227364e-08 0.0000000000000000e+00  -5.8065439468751639e-06 3.3189746056206393e-09 0.0000000000000000e+00  -4.1375520687946416e-06 1.0790770336452346e-08 0.0000000000000000e+00  -7.8096711789079899e-07 -4.7497885573176051e-08 0.0000000000000000e+00  -3.3269469870754416e-06 1.1485133184475285e-08 0.0000000000000000e+00  -3.0124404789917458e-06 -5.0354013863173712e-08 0.0000000000000000e+00  1.0985720719072398e+00 5.7468351265408280e-05 0.0000000000000000e+00  1.0985121280050698e+00 7.7317677802942277e-06 0.0000000000000000e+00  1.0981357486045731e+00 -3.3686875923305461e-03 0.0000000000000000e+00  1.0983871141114026e+00 -2.3999787323794182e-04 0.0000000000000000e+00  1.0982106609974458e+00 -3.4010865541074226e-05 0.0000000000000000e+00  1.0985068692592317e+00 8.7853488167388295e-05 0.0000000000000000e+00  9.0964608098819322e-01 -4.9444230444044820e-02 0.0000000000000000e+00  1.0983673440539032e+00 -2.1268304737181040e-05 0.0000000000000000e+00  -1.9851001323372994e-07 4.2789542831836502e-08 0.0000000000000000e+00  -1.4747737366021581e-06 -8.6412630743733734e-08 0.0000000000000000e+00  1.0980957648082112e+00 3.0925574242724450e-04 0.0000000000000000e+00  -1.4048222957124332e-06 3.4542891730691379e-08 0.0000000000000000e+00  -2.9919044861093338e-06 -2.9745498373867263e-07 0.0000000000000000e+00  -6.5814159707123940e-06 9.5381070426565741e-08 0.0000000000000000e+00  1.0984535126906019e+00 1.0156850584423961e-04 0.0000000000000000e+00  -1.1231389437325325e-06 -5.1059854886955842e-08 0.0000000000000000e+00  -4.6000310021465626e-06 -3.6094931207168181e-10 0.0000000000000000e+00  6.3160369217430865e-07 -3.4390490846972387e-08 0.0000000000000000e+00  1.0989831165463140e+00 -7.3294416946591918e-04 0.0000000000000000e+00  -2.2904996828556479e-06 3.0904475277885357e-08 0.0000000000000000e+00  2.2826900272249945e-06 8.0649104091635508e-11 0.0000000000000000e+00  2.6187526319919476e-06 -3.4026028402137056e-08 0.0000000000000000e+00  -7.0292775636476471e-06 2.0049414924827423e-07 0.0000000000000000e+00  -5.3242777177236875e-06 1.0121690265453311e-06 0.0000000000000000e+00  -5.4516517456140519e-06 -5.1985681448297579e-07 0.0000000000000000e+00  2.5319344194052484e-07 -4.1926627368111419e-09 0.0000000000000000e+00  1.0982455137061831e+00 -1.1205205246600247e-04 0.0000000000000000e+00  -1.7566707510623195e-06 1.2824273937664620e-08 0.0000000000000000e+00  1.0985130057409529e+00 -2.5965597110095756e-05 0.0000000000000000e+00  1.0983693336200313e+00 5.1870749513657109e-06 0.0000000000000000e+00  1.0982861585796937e+00 1.5938614694485798e-05 0.0000000000000000e+00  1.0981688777662710e+00 -6.8863200123183799e-04 0.0000000000000000e+00  1.0985014581970860e+00 -1.1659984822741764e-04 0.0000000000000000e+00  1.8085112997918587e+00 -2.5650653626295833e-01 0.0000000000000000e+00  1.0985131507896915e+00 -1.2097761439403118e-04 0.0000000000000000e+00  1.0984559870006141e+00 -1.3388782985063233e-06 0.0000000000000000e+00  1.0982643401403887e+00 1.5564515417732574e-04 0.0000000000000000e+00  1.1086433860243103e+00 -6.0581280526540941e-03 0.0000000000000000e+00  1.0985436673009199e+00 -1.2745683692551033e-03 0.0000000000000000e+00  1.6735541946321073e+00 5.3681187188426749e-01 0.0000000000000000e+00  1.1249989842260975e+00 6.2931856132915440e-07 0.0000000000000000e+00  1.1249900563669013e+00 9.7308736866496488e-07 0.0000000000000000e+00  1.0983891291052026e+00 -1.5603073143300162e-05 0.0000000000000000e+00  1.1714907338784286e+00 6.2700996600890332e-02 0.0000000000000000e+00  1.0856532475623084e+00 -9.9372247156772498e-03 0.0000000000000000e+00  1.1993063201758145e+00 -6.7426714405837015e-02 0.0000000000000000e+00  1.1008826379896561e+00 -1.0561052146024900e-03 0.0000000000000000e+00  1.0977077799069508e+00 1.6604888285527974e-05 0.0000000000000000e+00  1.0984164860895114e+00 1.8199059800699235e-04 0.0000000000000000e+00  1.0980159644957834e+00 9.6515581276969937e-05 0.0000000000000000e+00  1.0962858630074421e+00 -1.1856234922574911e-03 0.0000000000000000e+00  1.0968314522826512e+00 2.3352408536937049e-04 0.0000000000000000e+00  1.0986231772716353e+00 -6.9693601473786086e-05 0.0000000000000000e+00  1.0982595595216695e+00 3.4211546024592546e-05 0.0000000000000000e+00  1.0977821828397494e+00 -1.6049957731116939e-04 0.0000000000000000e+00  1.0984575767788936e+00 -2.7566816678255722e-05 0.0000000000000000e+00  1.0980570590133909e+00 -1.0844574363930490e-04 0.0000000000000000e+00  1.0984440402661659e+00 -3.7241278586328544e-05 0.0000000000000000e+00  1.0981102451704439e+00 -2.2664824043053403e-05 0.0000000000000000e+00  1.0984452653969385e+00 -8.8345444674272429e-05 0.0000000000000000e+00  1.0968288149350574e+00 8.0448923158056018e-07 0.0000000000000000e+00  1.0963954045071034e+00 7.3522407250202626e-06 0.0000000000000000e+00  1.0983780824262506e+00 2.3201571860976704e-05 0.0000000000000000e+00  1.1863179253736091e+00 2.4966980514607295e-01 0.0000000000000000e+00  1.0982742041693414e+00 -6.5055829682015480e-05 0.0000000000000000e+00  -5.9832384004967742e-01 -7.8750707112090354e-02 0.0000000000000000e+00  1.0981517032535282e+00 -1.5129674037795099e-03 0.0000000000000000e+00  1.0984761896182105e+00 -7.6119368602780305e-05 0.0000000000000000e+00  1.3926579026808896e+00 2.0405807615110472e-01 0.0000000000000000e+00  1.0984056997757374e+00 1.9980865908409857e-05 0.0000000000000000e+00  1.8759863233073584e+00 -8.1811160588263678e-03 0.0000000000000000e+00  1.1418783583718726e+00 -2.4560515537756028e-01 0.0000000000000000e+00  -5.7945992539996760e-07 4.3525752091179652e-08 0.0000000000000000e+00  1.0938673276893729e+00 -1.5269573686298860e-04 0.0000000000000000e+00  -2.9092525233697977e-06 -2.3837900467883357e-09 0.0000000000000000e+00  -7.7666641955283905e-06 1.8074584864673032e-08 0.0000000000000000e+00  1.0985969120000527e+00 1.2957475769749388e-05 0.0000000000000000e+00  4.5855556017592117e-06 -2.1680469702669303e-06 0.0000000000000000e+00  1.0964587547067608e+00 -1.4296880199291540e-05 0.0000000000000000e+00  -4.0646567670833995e-06 -1.0896598842794363e-07 0.0000000000000000e+00  -2.5992942794652811e-06 -1.0672305668093488e-08 0.0000000000000000e+00  1.0971120293912571e+00 1.8330564901337913e-04 0.0000000000000000e+00  7.9120127750578618e-06 3.4166152019693953e-06 0.0000000000000000e+00  1.2698795549336908e+00 -3.3282805709349739e-01 0.0000000000000000e+00  1.5287734805214814e+00 -2.5534304860225204e-01 0.0000000000000000e+00  1.0982497610448463e+00 -3.1193545556938419e-04 0.0000000000000000e+00  1.3370133141089613e+00 -1.0548486647074896e-01 0.0000000000000000e+00  1.0947508382993087e+00 -5.7623290030084512e-02 0.0000000000000000e+00  1.3736508232894240e+00 1.2622989558615819e-01 0.0000000000000000e+00  1.0715493006253696e+00 3.0399152281010314e-02 0.0000000000000000e+00  1.0984356146518994e+00 5.5197976404910450e-05 0.0000000000000000e+00  1.0955124813498049e+00 1.8010078493135086e-05 0.0000000000000000e+00  -6.8335554728274372e-07 4.1699529967303177e-08 0.0000000000000000e+00  1.0963722248184475e+00 -1.5418402300172186e-04 0.0000000000000000e+00  1.0984360355752916e+00 -5.2542414540894956e-04 0.0000000000000000e+00  1.0984156952972164e+00 1.0414265216747156e-05 0.0000000000000000e+00  1.0982043079169395e+00 -3.9243481895004976e-05 0.0000000000000000e+00  1.0964116596974109e+00 -2.0238592780133651e-04 0.0000000000000000e+00  -3.5590672921761048e-06 3.8645101004391517e-08 0.0000000000000000e+00  1.0983522603006246e+00 1.9551676884411765e-05 0.0000000000000000e+00  1.0959456498638169e+00 -2.4957281371843995e-04 0.0000000000000000e+00  1.6205519563546447e+00 2.9900447330183801e-02 0.0000000000000000e+00  1.0983420632337009e+00 -5.3191682419735603e-06 0.0000000000000000e+00  1.0983414498292086e+00 -1.2782561544917554e-04 0.0000000000000000e+00  -1.2988851726687041e-06 5.6987130150250805e-10 0.0000000000000000e+00  -1.4847740038926756e-05 -5.3946901219604725e-08 0.0000000000000000e+00  1.0992973379628121e+00 -1.6527155786125189e-03 0.0000000000000000e+00  1.0974083813582960e+00 -2.0974270441264189e-03 0.0000000000000000e+00  1.2840599486622220e+00 -7.2864385777359486e-02 0.0000000000000000e+00  1.0985653952910275e+00 -1.2424530851591891e-04 0.0000000000000000e+00  -3.5332980266763879e-06 -7.2439854998713106e-07 0.0000000000000000e+00  6.5625081004409191e-01 2.6135897418492412e-07 0.0000000000000000e+00  1.0892136509622543e+00 5.8004160668206267e-05 0.0000000000000000e+00  1.1341471952351778e+00 -1.6051485695131727e-02 0.0000000000000000e+00  1.1143376655340000e+00 6.9034428700919821e-03 0.0000000000000000e+00  -6.0616643229269182e-06 -7.3590837628023307e-09 0.0000000000000000e+00  1.0953502568021971e+00 1.5359999639722122e-04 0.0000000000000000e+00  1.0985259788058217e+00 -4.3743382428133399e-06 0.0000000000000000e+00  -3.8707528775646401e-06 -1.4516926789853459e-09 0.0000000000000000e+00  -1.1179999630452750e-05 1.9902341731365875e-08 0.0000000000000000e+00  -5.5505297217484529e-06 -7.7678149714715747e-08 0.0000000000000000e+00  1.2797458917199428e-06 3.7973018950770625e-08 0.0000000000000000e+00  -2.6836332294491970e-06 1.1555732708561652e-07 0.0000000000000000e+00  -9.2985905964424057e-07 3.7853052978228456e-08 0.0000000000000000e+00  3.3040740781149877e-07 -4.2248109795218493e-08 0.0000000000000000e+00  -9.6805309486765184e-06 7.7813521642026563e-08 0.0000000000000000e+00  9.9095890881569266e-06 -2.8109931445965386e-06 0.0000000000000000e+00  -1.5323880340976578e-05 -1.3230134147539548e-07 0.0000000000000000e+00  1.1929222726383845e-06 1.7342264281674554e-06 0.0000000000000000e+00  -4.6601500780357188e-07 7.8100856984905130e-07 0.0000000000000000e+00  -4.8390681736540175e-07 3.1226110863095067e-08 0.0000000000000000e+00  -8.6996279522505103e-06 8.9214814633136887e-08 0.0000000000000000e+00  -6.9320214387313858e-06 -7.4898956871490958e-08 0.0000000000000000e+00  -9.7411011145632318e-07 -1.3141837618344842e-08 0.0000000000000000e+00  -8.3173949402269676e-06 -5.4894416226084835e-08 0.0000000000000000e+00  -2.3570522309016911e-06 -5.8636346104961028e-08 0.0000000000000000e+00  -7.4070814714032834e-07 1.7182394481172866e-08 0.0000000000000000e+00  1.0860516323386615e+00 -4.5786494659832896e-04 0.0000000000000000e+00  1.0882005603302392e+00 5.3947772391245994e-04 0.0000000000000000e+00  1.0924787925621706e+00 2.5260741977264330e-05 0.0000000000000000e+00  1.0949769958379045e+00 -2.5484285235060657e-04 0.0000000000000000e+00  1.0985406795792803e+00 2.3440831907998688e-05 0.0000000000000000e+00  1.0982768072211371e+00 -3.8773003344715275e-05 0.0000000000000000e+00  1.0928828895367315e+00 -8.9678246665944150e-04 0.0000000000000000e+00  1.0840208579026105e+00 4.4495479468981407e-04 0.0000000000000000e+00  4.4341936397917259e-01 2.7808193859027580e-01 0.0000000000000000e+00  1.2803136960926369e+00 8.2855876518396515e-02 0.0000000000000000e+00  5.9109911436500373e-01 -7.6038348294424241e-02 0.0000000000000000e+00  1.0984027139616541e+00 5.0227111786921339e-05 0.0000000000000000e+00  1.0984571563396384e+00 3.5961833753868407e-06 0.0000000000000000e+00  1.0984176852588039e+00 -1.8217558452265939e-05 0.0000000000000000e+00  1.0983706249093028e+00 -1.6189033772353746e-05 0.0000000000000000e+00  1.0868171872927026e+00 -5.2186987116100390e-04 0.0000000000000000e+00  1.0920282163130128e+00 -2.1523645021763222e-04 0.0000000000000000e+00  1.0842700531195502e+00 4.5343557819104964e-04 0.0000000000000000e+00  1.0980029165720042e+00 3.5362372921309275e-05 0.0000000000000000e+00  1.0991981001432181e+00 -2.9408354207437638e-04 0.0000000000000000e+00  1.0883282930594760e+00 -2.2463354602836908e-03 0.0000000000000000e+00  9.3958722802433503e-01 2.7223857327342407e-02 0.0000000000000000e+00  1.0984552687858178e+00 -6.6298517839324917e-06 0.0000000000000000e+00  1.0982900421458002e+00 -3.0214225872999842e-06 0.0000000000000000e+00  1.0984545364713325e+00 -4.1523605599574293e-06 0.0000000000000000e+00  1.0931555926381065e+00 4.4350822969197205e-04 0.0000000000000000e+00  1.0984634415708301e+00 3.8052429264712983e-05 0.0000000000000000e+00  1.0983089889095294e+00 -2.3967950442659382e-05 0.0000000000000000e+00  1.0913857307525250e+00 -6.2314681859507073e-04 0.0000000000000000e+00  1.0984720522714790e+00 2.7312490272613941e-05 0.0000000000000000e+00  1.0885163882059676e+00 5.6172904808654447e-04 0.0000000000000000e+00  1.1013196333358437e+00 -4.2078722970045413e-03 0.0000000000000000e+00  6.5624827722660573e-01 4.1841194173916934e-08 0.0000000000000000e+00  1.0727601716917499e+00 1.2871139897889954e-03 0.0000000000000000e+00  1.0959180824464851e+00 -2.3231554390213448e-03 0.0000000000000000e+00  1.2213521835888776e+00 2.2461618984692375e-01 0.0000000000000000e+00  1.0759522450801795e+00 -2.7840440874500247e-04 0.0000000000000000e+00  1.0982408512077244e+00 -9.0498246212179247e-04 0.0000000000000000e+00  1.0982794573648886e+00 -7.9565024197190707e-05 0.0000000000000000e+00  1.0984316996656875e+00 -3.6718951415728844e-05 0.0000000000000000e+00  1.0983785668476866e+00 5.1874356920059377e-05 0.0000000000000000e+00  1.0985489753397684e+00 -1.7287269679894781e-05 0.0000000000000000e+00  1.1334832659222676e+00 3.5623943051187427e-02 0.0000000000000000e+00  1.0509797425005414e+00 -1.5148716521515976e-02 0.0000000000000000e+00  1.0658364827325810e+00 -7.0840670310687434e-03 0.0000000000000000e+00  1.0984319312258255e+00 6.8330323830570586e-06 0.0000000000000000e+00  1.0984995882352349e+00 7.7192846981503801e-05 0.0000000000000000e+00  1.0995307027825061e+00 -1.0370470314133327e-02 0.0000000000000000e+00  1.0982857867752427e+00 1.5440907454698221e-04 0.0000000000000000e+00  1.0704639998420304e+00 5.6954793834655786e-03 0.0000000000000000e+00  1.0810367141420898e+00 -1.2314783861392835e-04 0.0000000000000000e+00  1.0502117196171736e+00 8.0508373518994923e-04 0.0000000000000000e+00  9.4141336334294756e-01 9.2959534162785268e-02 0.0000000000000000e+00  1.0384633884094834e+00 6.5857373455392009e-03 0.0000000000000000e+00  1.0928828119159455e+00 4.8377367082757189e-03 0.0000000000000000e+00  1.0984308813278933e+00 3.4769451154466567e-05 0.0000000000000000e+00  1.0987238058898441e+00 -4.1652848168032333e-04 0.0000000000000000e+00  1.2246197311564919e+00 1.6576004570014302e-01 0.0000000000000000e+00  1.0896804028459786e+00 -3.8252363419835649e-04 0.0000000000000000e+00  1.0974376747574086e+00 -6.0686124804492602e-05 0.0000000000000000e+00  1.0983946350916993e+00 -2.7403263632360149e-05 0.0000000000000000e+00  1.0984464103309417e+00 -3.6583202945179378e-05 0.0000000000000000e+00  1.2655253967714144e+00 3.7298519189184760e-02 0.0000000000000000e+00  1.0982017956489918e+00 -8.4761272032233166e-06 0.0000000000000000e+00  1.0982883598834425e+00 1.9742817406162263e-05 0.0000000000000000e+00  1.0984276104670356e+00 8.0393929079760623e-05 0.0000000000000000e+00  1.0983322363309833e+00 -1.7313240904000962e-04 0.0000000000000000e+00  1.0443107170920558e+00 -7.9554833633027264e-05 0.0000000000000000e+00  1.0441655970485415e+00 -4.0794972933687589e-04 0.0000000000000000e+00  1.0705767484163311e+00 -1.7988830179446993e-04 0.0000000000000000e+00  1.0826934087755002e+00 -4.3070997888085613e-04 0.0000000000000000e+00  1.0893158258821196e+00 2.2371802851134381e-04 0.0000000000000000e+00  1.0984140962439015e+00 -1.0881248226768011e-04 0.0000000000000000e+00  1.0595816368293849e+00 -7.4193353004291826e-04 0.0000000000000000e+00  1.0985346214899461e+00 9.8385424830930431e-06 0.0000000000000000e+00  1.0984805362269490e+00 6.3252249072110386e-05 0.0000000000000000e+00  1.3134548736432017e+00 -6.1526727090093380e-02 0.0000000000000000e+00  1.0984237810145705e+00 -1.9916395004258496e-05 0.0000000000000000e+00  1.0984579021650889e+00 -7.2237213386974018e-05 0.0000000000000000e+00  1.0978650650279691e+00 -1.0632376170334773e-03 0.0000000000000000e+00  1.0149414208248697e+00 -3.3985254791906659e-04 0.0000000000000000e+00  1.0983863881082592e+00 4.0364218800096512e-05 0.0000000000000000e+00  1.1023679699461577e+00 -1.5280574825524473e-01 0.0000000000000000e+00  1.0761384963497391e+00 2.6509224766629435e-04 0.0000000000000000e+00  7.3729493366462451e-01 -7.7451516077257712e-02 0.0000000000000000e+00  1.2917527333808889e+00 -3.0456533185554909e-02 0.0000000000000000e+00  1.0735354030432604e+00 2.3261611056184134e-04 0.0000000000000000e+00  1.0397113712195449e+00 -1.9220947460224004e-04 0.0000000000000000e+00  1.5338746799831462e+00 4.5771406863466935e-01 0.0000000000000000e+00  1.0038323319524449e+00 1.6722478357086520e-01 0.0000000000000000e+00  1.0671005440046635e+00 1.5063072838434231e-03 0.0000000000000000e+00  1.9137630620197039e+00 2.0475189477667682e-01 0.0000000000000000e+00  1.4681487974738641e+00 -5.0501449738859439e-01 0.0000000000000000e+00  9.7678801553622019e-01 -1.8247439228812670e-01 0.0000000000000000e+00  1.0659667130955603e+00 -7.9025416012968490e-04 0.0000000000000000e+00  1.0769096400850926e+00 -4.2632472217809369e-03 0.0000000000000000e+00  1.0594609046093781e+00 8.4826307492927343e-04 0.0000000000000000e+00  1.0754990228030707e+00 -2.2574471144530338e-04 0.0000000000000000e+00  1.0983441723273233e+00 -4.9772725710151617e-05 0.0000000000000000e+00  1.0497674977724156e+00 -1.9624886335053736e-02 0.0000000000000000e+00  1.4062435067964447e+00 1.1540356584498137e-06 0.0000000000000000e+00  1.0984693966940897e+00 1.5600292315394695e-04 0.0000000000000000e+00  1.0681466689631234e+00 -1.5237521910110984e-03 0.0000000000000000e+00  1.4062428120557622e+00 1.0943867143695545e-06 0.0000000000000000e+00  1.0688594762352555e+00 4.4669610964327868e-04 0.0000000000000000e+00  1.0982608697969656e+00 -1.6981895114464172e-04 0.0000000000000000e+00  1.0867803821833386e+00 4.8757874898058960e-02 0.0000000000000000e+00  1.0983049349172957e+00 1.0836473948522249e-04 0.0000000000000000e+00  7.1249551027317171e-01 9.5903888845026278e-02 0.0000000000000000e+00  1.0984048474796757e+00 7.5787671462110886e-05 0.0000000000000000e+00  1.0597333049699966e+00 -1.9498820713959839e-04 0.0000000000000000e+00  1.0540064233335740e+00 7.6152030585220512e-05 0.0000000000000000e+00  9.7984412625032224e-01 6.8033465726868067e-04 0.0000000000000000e+00  1.0984945029740345e+00 1.2014106893827490e-04 0.0000000000000000e+00  9.8154379328001451e-01 3.4843265877743296e-05 0.0000000000000000e+00  1.043205544165