<?xml version="1.0"?>
<VTKFile type="UnstructuredGrid"  version="0.1"  >
<UnstructuredGrid>
<Piece  NumberOfPoints="2446" NumberOfCells="4585">
<Points>
<DataArray  type="Float64"  NumberOfComponents="3"  format="ascii">0 0.41 0  0 0 0  2.2 0 0  2.2 0.41 0  0.2404508497187474 0.2293892626146237 0  0.25 0.2 0  0.2404508497187474 0.1706107373853764 0  0.2154508497187474 0.1524471741852423 0  0.1845491502812526 0.1524471741852423 0  0.1595491502812526 0.1706107373853764 0  0.15 0.2 0  0.1595491502812526 0.2293892626146237 0  0.1845491502812527 0.2475528258147577 0  0.2154508497187474 0.2475528258147577 0  1.1 0 0  1.1 0.41 0  0 0.205 0  0.55 0 0  0.55 0.41 0  0.275 0 0  0.275 0.41 0  1.65 0.41 0  1.65 0 0  0.8250000000000001 0.41 0  0.8250000000000001 0 0  1.375 0 0  1.375 0.41 0  1.925 0 0  1.925 0.41 0  1.5125 0.205 0  1.7875 0.205 0  0.6875 0.205 0  0.9625000000000001 0.205 0  1.2375 0.205 0  2.2 0.205 0  0.4687002074688797 0.2068568464730291 0  1.99375 0.2152743902439024 0  2.0625 0 0  2.0625 0.41 0  2.2 0.3075 0  0.4125 0 0  0.4125 0.41 0  1.7875 0.41 0  1.375 0.1486128048780488 0  1.5125 0 0  1.7875 0 0  1.5125 0.41 0  0.8250000000000001 0.2613871951219511 0  0.9625000000000001 0.41 0  0.9625000000000001 0 0  0.6875 0.41 0  0.6875 0 0  0.1375 0 0  0.1375 0.41 0  1.2375 0 0  1.1 0.1486128048780487 0  1.2375 0.41 0  1.65 0.1486128048780487 0  1.126715909090909 0.2793064024390244 0  1.676715909090909 0.2793064024390244 0  0.8517159090909092 0.1306935975609756 0  1.348284090909091 0.2793064024390244 0  0.34375 0.3032389320646208 0  1.894702181800738 0.1282910975492754 0  2.092797818199262 0.1282910975492754 0  1.85625 0.3075 0  0.61875 0.3075 0  0.61875 0.1025 0  0.3648540804333487 0.1240075933101478 0  0 0.3075 0  0 0.1025 0  2.099172119769978 0.25625 0  0.48125 0.09238439620688085 0  0.5781001037344399 0.2059284232365146 0  0.48125 0.3196743479159776 0  0.7265881057911006 0.3055240343720796 0  1.99375 0.08395950269330846 0  1.459960956013612 0.3075 0  1.569025960719943 0.2986889805672169 0  0.75625 0.08213100772579164 0  1.03125 0.3278689922742084 0  0.923871252904788 0.3078247185783941 0  1.959375 0.3126371951219512 0  1.749222215368287 0.1025 0  1.275777784631713 0.1025 0  2.2 0.1025 0  1.225938124459196 0.3075 0  1.550777784631713 0.1025 0  1.000777784631713 0.1025 0  1.44375 0.07430640243902442 0  1.16875 0.07430640243902437 0  1.899250267340833 0.2229966846119207 0  0.1020898364287272 0.3140258291809757 0  1.766482954545455 0.2934032012195123 0  0.3405058858996321 0.2119987970531874 0  0.7710785630958338 0.1710968191298857 0  1.046078563095834 0.2389031808701144 0  0.2 0.3400647632937836 0  1.421109702350723 0.2261157654379721 0  0.2800464974185557 0.08982544815605742 0  0.098916018031319 0.09171660955420841 0  2.13125 0 0  2.118919042110979 0.3422084711244843 0  1.30625 0.41 0  0.89375 0 0  1.597888256393107 0.2173787389261347 0  0.20625 0 0  1.829299675393195 0.07400700849299596 0  1.71875 0.41 0  1.16875 0.41 0  2.038220665644273 0.332420740103091 0  0.34375 0 0  0.417496017710808 0.2696595573092803 0  0.2 0.07687845740457822 0  0.9295982307099278 0.1343158415898188 0  0.07390688010811153 0.1697064032433452 0  0.5238366813727013 0.2578302467013575 0  0.05452951551825875 0.25625 0  0.5229630068078351 0.1548816096928243 0  1.452769549894695 0.1548122580621249 0  1.369219062229598 0.07430640243902442 0  1.30625 0 0  0.8504409521244898 0.3356935975609756 0  0.8821881244591965 0.205 0  1.720943423819132 0.1714577452753128 0  1.157188124459196 0.205 0  1.094219062229598 0.07430640243902437 0  1.03125 0 0  1.304056576180868 0.1714577452753128 0  1.67579304192913 0.07430640243902437 0  0.2751941921308361 0.3346083473122598 0  1.209670467133757 0.1362100266964769 0  1.025335513626278 0.1700681449722324 0  0.7562500000000001 0.41 0  1.58125 0 0  0.7567170593862014 0.2409196493502535 0  0.6926714215682891 0.1272249611432207 0  0.4139715849905988 0.3397932387114203 0  0.9840787304190477 0.2717749043358119 0  0.06875000000000001 0.41 0  0 0.35875 0  0.9281250000000001 0.06276726142697993 0  0.5507396469029935 0.3219409231578227 0  0.5504468037989405 0.09136885600634273 0  1.58125 0.41 0  1.631724228912893 0.3381867502687533 0  1.825608881788174 0.14499488549201 0  1.85625 0 0  1.44375 0 0  1.44375 0.41 0  1.85625 0.41 0  2.13125 0.41 0  0.7562500000000001 0 0  0.89375 0.41 0  0.4812500000000001 0 0  0.34375 0.41 0  0.4812500000000001 0.41 0  0.20625 0.41 0  0.06875000000000001 0 0  1.16875 0 0  0.61875 0 0  0.61875 0.41 0  1.03125 0.41 0  1.71875 0 0  1.99375 0 0  1.99375 0.41 0  1.340625 0.3489494290853124 0  1.134375 0.3489494290853123 0  1.700180620188976 0.3438659752031281 0  2.135782184673599 0.07126652247502523 0  1.668441847249787 0.2129203728327609 0  1.295782514339747 0.2378437748815763 0  0.8233075729931248 0.06842334294821524 0  1.409375 0.3520314716057996 0  0.403505597322782 0.182067236678212 0  0.378125 0.05794951541303489 0  0.3043468223249023 0.1518321115979534 0  2.129248544730567 0.1906135162504124 0  2.060771381434487 0.1989445750470348 0  2.013252586573865 0.1496169464686054 0  1.942766402200229 0.1734448904596831 0  1.895522487186454 0.06076163953489683 0  2.069553871656643 0.06605731020975725 0  1.274680914880868 0.3520219391081363 0  1.614713220494657 0.09473434380863296 0  0.7899021319497519 0.3149123934144827 0  0.69518737419149 0.0634051089053758 0  0.2971740475496061 0.2592172353407536 0  1.72990325744076 0.2380068107952482 0  1.356580098625191 0.2120393231351682 0  2.034370752044885 0.2668681600792073 0  1.51768709249349 0.3426260931494756 0  1.561883724969884 0.1650446847858835 0  1.197344062229598 0.2523725417393646 0  1.804085235518364 0.3468178408964637 0  1.817887819205233 0.2589243285818559 0  1.905897727272727 0.3485060975609756 0  0.6719798073392919 0.2688965171178177 0  0 0.05125 0  0.653125 0.35875 0  0.6396896119294488 0.1627615407790282 0  0.4274150154087412 0.1242548552168279 0  1.192836486056382 0.3562350748565544 0  0.8279124365364005 0.183856489168822 0  1.097485222388854 0.2083571153401724 0  1.28257088594801 0.2944411014911587 0  1.474860187679412 0.2504218616229368 0  1.406767003493824 0.2829282258560709 0  0.446875 0.04619219810344041 0  0.515625 0.04585361801037557 0  0.592043440706648 0.05125 0  1.845656689180403 0.1998310418452388 0  2.144958525570388 0.2909790873294231 0  0.6171090763650112 0.2492366900333857 0  2.2 0.15375 0  0.5145586920831158 0.3648371739579888 0  1.57794966442982 0.3540357145964566 0  0.721875 0.3633107922168974 0  0.0496154796471391 0.333125 0  0.5843750000000001 0.3662560860076676 0  0.5810878747760798 0.1474002776121195 0  1.508991196088596 0.1421783375065625 0  0.8840670607017558 0.2640994375393898 0  0.09776612425612034 0.2204896805326566 0  1.50436820029908 0.06143401634903343 0  1.223857000523521 0.0823554862453532 0  1.153316824384777 0.1289850171317837 0  2.148922302309752 0.1258841779285271 0  0.309375 0.04312325590431198 0  1.621993280276081 0.2841214267927899 0  1.550118654119087 0.2461998729100966 0  1.327182649291491 0.1216967252533594 0  1.051977450479407 0.1221382572915816 0  1.753125 0.04556020050186112 0  1.271875 0.04556020050186116 0  0.9816084133102366 0.05126138213476004 0  1.039051841454368 0.0572224914831029 0  0.9719230514536006 0.3480477870845102 0  1.94956388244759 0.1180512551534177 0  1.949997712993411 0.04965831614304109 0  1.771961817615021 0.1530278789497521 0  1.909246823951428 0.2812757146784527 0  0.2459536687882397 0.04668633953831142 0  1.948575539857022 0.2445328248721197 0  1.697271520964565 0.1233917627620729 0  0.7964897648514618 0.1211426571931604 0  1.065625 0.3689344961371042 0  1.085849084308977 0.3170853572226867 0  0.4702981435440001 0.260434880697798 0  1.577403511714593 0.05463601888079143 0  0.05622663515370135 0.05493816910862376 0  0.3267207591099919 0.3566194660323104 0  0.9003051618565143 0.3564049499960621 0  1.751571320346033 0.3651102912045228 0  0.1583785085108421 0.2994699345738728 0  0.1455283439499995 0.3542795598723423 0  2.2 0.35875 0  0.2347662494194072 0.298325008655211 0  0.1527284455616188 0.1065771775690181 0  0.1382139529076665 0.05427454456341477 0  0.8749341636311069 0.05110114999892954 0  0.643661668713109 0.05693499781019222 0  1.466879772203159 0.3611261772912453 0  1.990280163552011 0.3564754268533217 0  1.17471064520912 0.2990917256188288 0  0.5202693090594349 0.206382495511728 0  0 0.25625 0  2.2 0.25625 0  2.2 0.05125 0  0 0.15375 0  1.853978576207987 0.35875 0  0.9787513713939683 0.1487523696999336 0  0.240625 0.3722153812029779 0  1.515638456102889 0.2882700110184686 0  0.09048297387599738 0.3637717362208066 0  2.150453692751374 0.2387066338105111 0  1.323782677156475 0.04897634338873398 0  0.8074131292871642 0.3624701995505916 0  1.409375 0.03715320121951221 0  1.406484531114799 0.1087852750766809 0  1.134375 0.03715320121951218 0  1.627401732573545 0.04552157221025036 0  0.1170173172005315 0.1427610859166811 0  2.045405893604797 0.1105340662939892 0  1.255408269734577 0.1577307500159216 0  2.028125 0.03707597992059326 0  0.4743610090857199 0.1421513964721819 0  0.9354010469015898 0.250631300585664 0  0.04420832937638274 0.128125 0  0.8922386349349938 0.0992956419364831 0  0.1197849154434487 0.2663398672460083 0  1.248258025468107 0.2565907092181813 0  0.3746885856929528 0.370723531618974 0  1.203125 0.0366132337404304 0  0.5724622277005015 0.2751253816079333 0  0.3365425205162783 0.08395777655057959 0  2.072662025974815 0.2975086504196739 0  0.4581080832182547 0.3648371739579888 0  0.3874522734668214 0.2295447548840689 0  0.7827853612484443 0.04106550386289586 0  1.887722846421017 0.1760882698830035 0  1.472640588990488 0.1118278026240017 0  1.865937103925594 0.2604137786483804 0  1.463913572748262 0.2030442564990043 0  1.376426316059077 0.3186741374914345 0  0.6641993820150034 0.3141688596240831 0  0.2943117490824315 0.2130987422685822 0  0.3478153998082709 0.1666571081082676 0  0.3427990510599805 0.2575950027870776 0  0.7997118993855807 0.2216171933356366 0  
[...]
<PointData  Vectors="f_31"> 
<DataArray  type="Float64"  Name="f_31"  NumberOfComponents="3" format="ascii">2.1564129518468621e-06 5.3865571807002560e-08 0.0000000000000000e+00  -2.2820251321923854e-06 9.0808526959387795e-09 0.0000000000000000e+00  3.9937296835575414e-06 -8.5399297943990540e-09 0.0000000000000000e+00  -1.6718522527382919e-05 -2.9465089858353633e-08 0.0000000000000000e+00  -4.7248486043588249e-06 -6.1379569110013930e-07 0.0000000000000000e+00  -5.2895384507367224e-06 1.3915598970335947e-05 0.0000000000000000e+00  -5.3546361426423741e-06 6.2986655971293699e-06 0.0000000000000000e+00  -6.4705799169560198e-06 -1.1453185769092546e-06 0.0000000000000000e+00  -7.9491954160528002e-06 -2.9845217877216749e-06 0.0000000000000000e+00  -4.6918334806052322e-06 4.3022065978772138e-07 0.0000000000000000e+00  1.0853095732792891e-06 8.0333372622464871e-06 0.0000000000000000e+00  -5.0552169237656966e-06 -3.6231851721517166e-06 0.0000000000000000e+00  9.1351418817439971e-06 3.3761068156430035e-06 0.0000000000000000e+00  -1.3317987606221190e-05 -8.1470129358755239e-07 0.0000000000000000e+00  -2.5935950880309565e-06 -2.4345964595932624e-08 0.0000000000000000e+00  -2.2016172369512625e-07 -2.8441434695211777e-08 0.0000000000000000e+00  1.5000042800876727e+00 1.2875020615978718e-06 0.0000000000000000e+00  -1.6558536119905895e-05 1.0364740569028732e-06 0.0000000000000000e+00  -7.1041924652037171e-06 -5.0331046748802340e-07 0.0000000000000000e+00  4.3840126590006829e-06 2.6604657410351297e-07 0.0000000000000000e+00  -2.2131771883382754e-06 -1.6704635817834848e-07 0.0000000000000000e+00  2.9336289394844099e-07 -1.2756074858957876e-08 0.0000000000000000e+00  2.0471022642964260e-08 1.2124174631979189e-08 0.0000000000000000e+00  1.6303407517822218e-06 -3.0941318749533944e-08 0.0000000000000000e+00  -5.2576001056364827e-06 2.5328999355279669e-08 0.0000000000000000e+00  -3.8918167630256283e-06 2.4623047429600175e-09 0.0000000000000000e+00  -9.2996646685282718e-07 -3.6434653934496756e-08 0.0000000000000000e+00  -3.0237786637183847e-06 2.1432662611183034e-08 0.0000000000000000e+00  -2.3786411418175270e-06 -8.1536641300310306e-09 0.0000000000000000e+00  1.1181738045743419e+00 6.6850398409067156e-05 0.0000000000000000e+00  1.1181835881391049e+00 5.6523007078337322e-06 0.0000000000000000e+00  1.1260647808293844e+00 -8.9970947238582830e-03 0.0000000000000000e+00  1.1180779691467784e+00 -5.3742568417147816e-04 0.0000000000000000e+00  1.1177891941547113e+00 -4.5618065777586844e-05 0.0000000000000000e+00  1.1180648387860406e+00 1.4477832259278909e-06 0.0000000000000000e+00  3.7717282192820850e-01 -4.0899009928778277e-02 0.0000000000000000e+00  1.1179721117964778e+00 -1.8399002003916812e-05 0.0000000000000000e+00  1.3363560877805003e-07 2.2088452635864918e-08 0.0000000000000000e+00  -9.1659777358610425e-07 1.2830446465379583e-08 0.0000000000000000e+00  1.1175353563730717e+00 1.0726542540802994e-05 0.0000000000000000e+00  9.0874675109521276e-06 1.1517338454771711e-07 0.0000000000000000e+00  6.9240163805021353e-06 9.6920411531850617e-08 0.0000000000000000e+00  -6.2526585480075965e-06 -1.8709446094658118e-08 0.0000000000000000e+00  1.1180048548011687e+00 6.7540810720692735e-05 0.0000000000000000e+00  -3.7616150226660891e-07 -3.5335542266480614e-08 0.0000000000000000e+00  -4.3295740010734810e-06 1.7053620670609920e-08 0.0000000000000000e+00  8.9591895307122510e-07 2.2252711571084747e-09 0.0000000000000000e+00  1.1202157887077608e+00 -6.1542443930261441e-04 0.0000000000000000e+00  -1.9673315901525763e-06 1.3195042389343072e-08 0.0000000000000000e+00  2.3628704567228319e-06 -7.0118555192246966e-10 0.0000000000000000e+00  2.8314278814056139e-07 -6.1408912671317963e-08 0.0000000000000000e+00  -8.1499421643929434e-06 1.9450167467469418e-07 0.0000000000000000e+00  -4.7055530438520164e-06 7.1494252702130492e-07 0.0000000000000000e+00  -4.9349217596250915e-06 -7.0062009182902190e-07 0.0000000000000000e+00  3.2493003611698304e-07 7.8018594324375908e-09 0.0000000000000000e+00  1.1178777037406697e+00 -1.1959679845250547e-04 0.0000000000000000e+00  -1.8094422082539987e-06 -2.5368544147057838e-08 0.0000000000000000e+00  1.1181345227311594e+00 1.2734912722006634e-05 0.0000000000000000e+00  1.1180006290899820e+00 -4.0250248629542141e-05 0.0000000000000000e+00  1.1178277224685840e+00 3.4910103453178136e-05 0.0000000000000000e+00  1.1175057557268668e+00 -2.2153450522187325e-03 0.0000000000000000e+00  1.1180170226096011e+00 -5.9111441798489282e-05 0.0000000000000000e+00  1.9452304543614358e+00 -1.8375912606189895e-01 0.0000000000000000e+00  1.1180827491212626e+00 -8.4742581612426023e-05 0.0000000000000000e+00  1.1180291847995074e+00 -9.0253900432869669e-05 0.0000000000000000e+00  1.1173393163427647e+00 1.7505230935161444e-06 0.0000000000000000e+00  1.1556341608825325e+00 1.8282644128681965e-02 0.0000000000000000e+00  1.1321058168142242e+00 -3.1872142087980421e-02 0.0000000000000000e+00  1.7965039717571509e+00 3.2988616922715819e-01 0.0000000000000000e+00  1.1249990416634519e+00 4.6937151505738840e-07 0.0000000000000000e+00  1.1249900955473691e+00 9.8248718203711084e-07 0.0000000000000000e+00  1.1179734693669690e+00 -5.1931807220190188e-05 0.0000000000000000e+00  1.3001247404311940e+00 1.7430390509434557e-01 0.0000000000000000e+00  1.0896497483385890e+00 -3.3428658187071331e-02 0.0000000000000000e+00  1.3093838847197394e+00 -1.2916719960028339e-01 0.0000000000000000e+00  1.1246279262417200e+00 4.1639623119247267e-03 0.0000000000000000e+00  1.1153498960670754e+00 -1.1735520224888244e-04 0.0000000000000000e+00  1.1178863939179111e+00 -9.2015377998384837e-05 0.0000000000000000e+00  1.1176266285162970e+00 2.1620421145810247e-04 0.0000000000000000e+00  1.1095966479770434e+00 -6.5500722735534781e-03 0.0000000000000000e+00  1.1140308485688346e+00 2.9425985290345815e-04 0.0000000000000000e+00  1.1180431482823268e+00 -2.5419633325120945e-05 0.0000000000000000e+00  1.1175301085338123e+00 1.7161681485357449e-04 0.0000000000000000e+00  1.1170985488303868e+00 -2.1927168058347144e-04 0.0000000000000000e+00  1.1177808868799519e+00 -8.3571845050239057e-05 0.0000000000000000e+00  1.1173870456066024e+00 -2.0344622042583238e-04 0.0000000000000000e+00  1.1177462776043416e+00 7.2539250910669132e-05 0.0000000000000000e+00  1.1177468914546196e+00 1.6929241875697402e-05 0.0000000000000000e+00  1.1175206062793397e+00 -3.1891395281371783e-04 0.0000000000000000e+00  1.1101662369871534e+00 1.1129995325302031e-04 0.0000000000000000e+00  1.1099716003733506e+00 -1.5730915437018589e-04 0.0000000000000000e+00  1.1180385819185870e+00 -2.7528684845789254e-06 0.0000000000000000e+00  1.1899635289118446e+00 2.5694968280152675e-01 0.0000000000000000e+00  1.1177365095165221e+00 -8.0840553026946374e-07 0.0000000000000000e+00  -7.1304236348926175e-01 -5.9392023666794483e-02 0.0000000000000000e+00  1.1197770703299592e+00 -4.9817442638314894e-03 0.0000000000000000e+00  1.1181319880640062e+00 -1.7027407709721063e-04 0.0000000000000000e+00  1.3998057840477527e+00 2.1710026493635731e-01 0.0000000000000000e+00  1.1179175004535788e+00 -1.0168216663167271e-05 0.0000000000000000e+00  1.8895180463601278e+00 -8.1882750356981671e-02 0.0000000000000000e+00  1.1383032050102067e+00 -2.4432892006343579e-01 0.0000000000000000e+00  -5.4501234077943056e-07 1.0075794905177098e-08 0.0000000000000000e+00  1.1024637940671440e+00 1.6111971654276876e-04 0.0000000000000000e+00  -2.0489971562267622e-06 3.2904632109415207e-08 0.0000000000000000e+00  -7.1093296012072511e-06 1.2856187351422706e-08 0.0000000000000000e+00  1.1181960830943001e+00 2.9779037166338777e-05 0.0000000000000000e+00  1.1875820214543004e-06 -3.0188032498970189e-07 0.0000000000000000e+00  1.1095402523055529e+00 -9.8567246273315143e-05 0.0000000000000000e+00  -3.1035855103929779e-06 1.1894512578301675e-08 0.0000000000000000e+00  -2.0832844990034455e-06 2.0541035870349054e-08 0.0000000000000000e+00  1.1123746388669222e+00 -3.3841101195499703e-05 0.0000000000000000e+00  2.7391693424455655e-06 3.8605828301240604e-07 0.0000000000000000e+00  1.6399409327744492e+00 -4.7147238998731544e-01 0.0000000000000000e+00  1.5191124608387663e+00 -2.7493021443177001e-01 0.0000000000000000e+00  1.1177326568685955e+00 -8.9972709957936083e-04 0.0000000000000000e+00  1.3352752241115371e+00 -9.8529135150665442e-02 0.0000000000000000e+00  1.3111720117372838e+00 -1.5896117018507791e-01 0.0000000000000000e+00  1.3744047033211280e+00 1.3203300661921466e-01 0.0000000000000000e+00  1.2067755720632520e+00 1.1986775851645956e-01 0.0000000000000000e+00  1.1180085191454583e+00 1.0290308358682395e-04 0.0000000000000000e+00  1.1092349071116330e+00 -1.0715809710049051e-04 0.0000000000000000e+00  -5.8412623347037923e-07 6.8265223642628202e-09 0.0000000000000000e+00  1.1100835046809745e+00 7.1300294687026244e-04 0.0000000000000000e+00  1.1185760452745488e+00 -1.1861502812486352e-03 0.0000000000000000e+00  1.1180664824183444e+00 5.3981358954846719e-05 0.0000000000000000e+00  1.1178261912226657e+00 -4.4968473508342426e-05 0.0000000000000000e+00  1.1103809216777529e+00 -1.0897889868900354e-04 0.0000000000000000e+00  -3.3075069525498183e-06 1.0901685830076103e-08 0.0000000000000000e+00  1.1179028038488614e+00 -7.4292843233074282e-06 0.0000000000000000e+00  1.1094697130605566e+00 -1.1281963926184532e-05 0.0000000000000000e+00  1.6444540560711922e+00 4.5970256967461341e-02 0.0000000000000000e+00  1.1179213706531672e+00 -5.9652969089306697e-05 0.0000000000000000e+00  1.1178989483655402e+00 -2.8970984461132367e-04 0.0000000000000000e+00  -1.3436884829833458e-06 -5.1557192837498240e-08 0.0000000000000000e+00  -1.3976971997322692e-05 -3.0455518640006074e-09 0.0000000000000000e+00  1.1232825679729235e+00 -2.1531530600826486e-03 0.0000000000000000e+00  1.1204387386249235e+00 -1.3293856709294219e-02 0.0000000000000000e+00  1.3960077510116018e+00 -1.8471896032985602e-01 0.0000000000000000e+00  1.1183666552784091e+00 -2.1977334262531661e-04 0.0000000000000000e+00  -2.8869202283433647e-06 -2.6624618409218378e-07 0.0000000000000000e+00  6.5625072324162614e-01 2.0100450353742080e-07 0.0000000000000000e+00  1.0917984757599721e+00 -4.5078208944348289e-04 0.0000000000000000e+00  1.1520039454362931e+00 6.0234180396901753e-02 0.0000000000000000e+00  1.1394190178786385e+00 -7.3115275992268414e-02 0.0000000000000000e+00  -5.3492719051147287e-06 7.0120017590595682e-09 0.0000000000000000e+00  1.1077562425143985e+00 2.7278861691877918e-04 0.0000000000000000e+00  1.1181110860565449e+00 -2.7803184081906485e-05 0.0000000000000000e+00  -3.7456397964288665e-06 1.7786497534144033e-08 0.0000000000000000e+00  -1.0823530576786067e-05 1.9170768602836282e-08 0.0000000000000000e+00  -4.6380634030004523e-06 -5.1051453375448843e-09 0.0000000000000000e+00  1.4901728494828560e-06 1.5554157023725243e-08 0.0000000000000000e+00  -2.6536190603620443e-06 -1.5054270215504558e-08 0.0000000000000000e+00  -1.1672977984691229e-06 3.2423741042971755e-08 0.0000000000000000e+00  6.1361186603095481e-07 -1.1681934938330950e-08 0.0000000000000000e+00  7.8916564566575260e-06 1.3118718814111439e-06 0.0000000000000000e+00  8.5688007776436338e-06 -3.7938943482882314e-07 0.0000000000000000e+00  1.8953649181522767e-07 -1.0824787200413605e-06 0.0000000000000000e+00  -2.8962987860424136e-06 -6.3751952924680109e-07 0.0000000000000000e+00  6.8702630774575171e-07 1.1490519314033647e-07 0.0000000000000000e+00  -4.0946291682683863e-07 2.2814638373271372e-08 0.0000000000000000e+00  -1.5043257017838901e-05 3.5933286478755333e-07 0.0000000000000000e+00  -1.1773209486977845e-05 -4.7062720073859408e-07 0.0000000000000000e+00  -9.0593824397080437e-07 -8.4286982923875167e-09 0.0000000000000000e+00  -7.7061571592632986e-06 -3.4716672108660127e-08 0.0000000000000000e+00  -2.2346725300166167e-06 -5.4524599988534640e-09 0.0000000000000000e+00  -8.3911257715029449e-07 -9.7680030606083551e-09 0.0000000000000000e+00  1.0871866717757481e+00 1.9039560869479414e-04 0.0000000000000000e+00  1.0886683248052005e+00 -2.0693431034919275e-06 0.0000000000000000e+00  1.0995230923297681e+00 -1.5691943482831072e-04 0.0000000000000000e+00  1.1065991743140844e+00 -6.1502929177361973e-05 0.0000000000000000e+00  1.1181718168701498e+00 5.3964425612074095e-05 0.0000000000000000e+00  1.1178295245589696e+00 -3.9842351821689860e-05 0.0000000000000000e+00  1.1001906584665087e+00 -2.3353936890824802e-03 0.0000000000000000e+00  1.0790705978746467e+00 -1.5054502293321907e-04 0.0000000000000000e+00  -1.6432575068117256e-01 2.4118279862207664e-01 0.0000000000000000e+00  1.4636362553068849e+00 1.9528742862357226e-01 0.0000000000000000e+00  4.4012278412960287e-01 -1.8814796278838700e-01 0.0000000000000000e+00  1.1180007981111626e+00 -2.2236726899447168e-05 0.0000000000000000e+00  1.1180643337334673e+00 -3.2821766708079779e-05 0.0000000000000000e+00  1.1181202997617348e+00 -6.7724545071189441e-05 0.0000000000000000e+00  1.1180634079847751e+00 -4.1656742855482208e-05 0.0000000000000000e+00  1.0869704709431873e+00 9.1395828892596259e-05 0.0000000000000000e+00  1.0991069830467974e+00 -3.0299489936806874e-04 0.0000000000000000e+00  1.0798417946280241e+00 -1.7109574386141960e-05 0.0000000000000000e+00  1.1168752821884338e+00 -1.7209893502197562e-04 0.0000000000000000e+00  1.1195108178890356e+00 1.5904407380590523e-03 0.0000000000000000e+00  1.0810040269707741e+00 -1.4392824936870283e-02 0.0000000000000000e+00  8.1412416255118758e-01 4.2107592644900993e-02 0.0000000000000000e+00  1.1180812059733685e+00 1.8812333709810286e-05 0.0000000000000000e+00  1.1178021504439091e+00 -3.1629799803843663e-05 0.0000000000000000e+00  1.1180330683720405e+00 -1.6225991026301663e-05 0.0000000000000000e+00  1.1018724903582604e+00 4.8885749125434741e-04 0.0000000000000000e+00  1.1181506056219530e+00 4.5362922590410674e-05 0.0000000000000000e+00  1.1179178332229722e+00 7.8509937442556490e-06 0.0000000000000000e+00  1.0944092691564116e+00 -4.8882078593003366e-06 0.0000000000000000e+00  1.1180169561846327e+00 1.9277269122065025e-05 0.0000000000000000e+00  1.0901960068886567e+00 1.2557401330845669e-05 0.0000000000000000e+00  1.1359471794968097e+00 -1.4735467012542325e-03 0.0000000000000000e+00  6.5624823649545849e-01 2.9004428244075538e-08 0.0000000000000000e+00  1.0353777102454078e+00 2.2094241177384032e-02 0.0000000000000000e+00  1.1255447136878285e+00 -1.3523431013178180e-02 0.0000000000000000e+00  1.6639302019478381e+00 5.5182750809312331e-01 0.0000000000000000e+00  1.0628805316279768e+00 2.4721628222862683e-04 0.0000000000000000e+00  1.1188618807642838e+00 -2.4968856945869439e-03 0.0000000000000000e+00  1.1178642410005442e+00 -1.3167367347261953e-04 0.0000000000000000e+00  1.1179523972507110e+00 -3.5615169541802815e-05 0.0000000000000000e+00  1.1179931309437448e+00 -3.1368633359395100e-06 0.0000000000000000e+00  1.1180288880782472e+00 -9.5705485381727926e-05 0.0000000000000000e+00  1.0159829524021642e+00 9.9459428973012284e-02 0.0000000000000000e+00  9.0819322773915934e-01 -2.5811063898343100e-02 0.0000000000000000e+00  9.9705807680481029e-01 -4.9931571689244787e-02 0.0000000000000000e+00  1.1180963249977276e+00 -2.4043560754276279e-05 0.0000000000000000e+00  1.1179978493417515e+00 -1.9598359227839987e-05 0.0000000000000000e+00  1.1503680791675686e+00 -1.7637952371979581e-02 0.0000000000000000e+00  1.1178742804642674e+00 2.8883126623312212e-05 0.0000000000000000e+00  9.3468626349330641e-01 1.4844208214120738e-02 0.0000000000000000e+00  1.0725566943729339e+00 4.0472718585601148e-04 0.0000000000000000e+00  1.0140059693433738e+00 5.9532876660772305e-03 0.0000000000000000e+00  9.4247066088687614e-01 9.5611168161225280e-02 0.0000000000000000e+00  9.4430143504715847e-01 3.6192619359851602e-02 0.0000000000000000e+00  1.1538373398592832e+00 -7.6948064126543380e-03 0.0000000000000000e+00  1.1181263998071160e+00 1.1954049950753238e-04 0.0000000000000000e+00  1.1189983923364932e+00 -4.4664637753231545e-04 0.0000000000000000e+00  1.2251345454157820e+00 1.7760582074318201e-01 0.0000000000000000e+00  1.0906127421038005e+00 6.4642560817086288e-05 0.0000000000000000e+00  1.1143088068598621e+00 -6.0597167937397857e-05 0.0000000000000000e+00  1.1180189270435561e+00 -6.1837394978079931e-05 0.0000000000000000e+00  1.1180296774581757e+00 -1.0600300175812602e-04 0.0000000000000000e+00  1.3766034353634442e+00 4.7867063628420921e-02 0.0000000000000000e+00  1.1178071190296159e+00 9.5699146622625452e-05 0.0000000000000000e+00  1.1179572354692693e+00 4.4051086071360321e-05 0.0000000000000000e+00  1.1179916085674959e+00 4.6067971078247373e-05 0.0000000000000000e+00  1.1178444036416950e+00 -1.9944842805862527e-04 0.0000000000000000e+00  1.0122117062800706e+00 -3.8129195257882302e-04 0.0000000000000000e+00  1.0120335867050865e+00 -4.3756653272995717e-04 0.0000000000000000e+00  1.0515811287203647e+00 -4.7899565533397824e-04 0.0000000000000000e+00  1.0762710376792968e+00 8.3507906775361041e-05 0.0000000000000000e+00  1.0911110615440038e+00 4.1844330629936713e-05 0.0000000000000000e+00  1.1180552888425146e+00 -8.8540695086110037e-05 0.0000000000000000e+00  1.0384663587494662e+00 -4.3447796823103648e-04 0.0000000000000000e+00  1.1181574585436944e+00 -5.6105136848026721e-06 0.0000000000000000e+00  1.1180726032746022e+00 1.2157701751898235e-05 0.0000000000000000e+00  1.3335701170820360e+00 -8.2033233421616350e-02 0.0000000000000000e+00  1.1180598873014271e+00 4.5466517046826977e-06 0.0000000000000000e+00  1.1180161758484857e+00 1.2497325665812642e-05 0.0000000000000000e+00  1.1168166534544790e+00 -4.2940660916016967e-03 0.0000000000000000e+00  9.7027826274769946e-01 -1.4647952848348308e-05 0.0000000000000000e+00  1.1171817405118907e+00 -4.9262936545448131e-07 0.0000000000000000e+00  1.4150491045099991e+00 -3.8248506126954435e-01 0.0000000000000000e+00  1.0652499677044953e+00 -2.7062482651007302e-04 0.0000000000000000e+00  7.3703059769065216e-01 -7.6361674873357738e-02 0.0000000000000000e+00  1.3995714031026427e+00 -7.3097570773108911e-02 0.0000000000000000e+00  1.0608439140325960e+00 3.4906133116667564e-04 0.0000000000000000e+00  1.0062942818843319e+00 -1.1883391313514748e-04 0.0000000000000000e+00  1.5400009991884482e+00 4.6943772155304692e-01 0.0000000000000000e+00  1.0073710676605516e+00 1.7728884631107203e-01 0.0000000000000000e+00  1.0495817765785707e+00 9.1762079123943014e-05 0.0000000000000000e+00  1.9212147628668934e+00 2.2426562450365709e-01 0.0000000000000000e+00  1.4552445877035216e+00 -5.0693484732476701e-01 0.0000000000000000e+00  9.7179504317315446e-01 -1.8880776715168132e-01 0.0000000000000000e+00  1.0473161533571833e+00 -7.7761784385737545e-04 0.0000000000000000e+00  1.0470714658176425e+00 -3.1629365267130997e-02 0.0000000000000000e+00  1.0358996289573839e+00 1.2015831655103710e-04 0.0000000000000000e+00  1.0617709970349081e+00 2.7154986187865145e-04 0.0000000000000000e+00  1.1179467340221036e+00 -1.1582267723191535e-05 0.0000000000000000e+00  9.0692144518606244e-01 -5.4982416410732753e-02 0.0000000000000000e+00  1.4062435163615861e+00 9.3487446925407544e-07 0.0000000000000000e+00  1.1181150795428727e+00 7.8267946981690223e-05 0.0000000000000000e+00  1.0504337671171107e+00 -8.0931348496924259e-04 0.0000000000000000e+00  1.4062429542666506e+00 1.0738211694708493e-06 0.0000000000000000e+00  1.0502346284708817e+00 -1.5900271171422154e-04 0.0000000000000000e+00  1.1177932481336039e+00 -4.9163613441390562e-04 0.0000000000000000e+00  1.1289482441121335e+00 4.7994857352827595e-02 0.0000000000000000e+00  1.1180778225931796e+00 7.0568722200355609e-05 0.0000000000000000e+00  7.1643881575127166e-01 9.9424310162110285e-02 0.0000000000000000e+00  1.1179807270680628e+00 1.0616502699702807e-05 0.0000000000000000e+00  1.0365663782659360e+00 -1.8060901830176029e-04 0.0000000000000000e+00  1.0258282002094035e+00 1.4462516879799538e-03 0.0000000000000000e+00  9.2557632443895144e-01 1.5156421315800451e-04 0.0000000000000000e+00  1.1179275149739483e+00 8.7133616323131739e-05 0.0000000000000000e+00  9.2648761859679307e-01 -2.4401948344149191e-04 0.0000000000000000e+00  1.01050864801