<?xml version="1.0"?>
<VTKFile type="UnstructuredGrid"  version="0.1"  >
<UnstructuredGrid>
<Piece  NumberOfPoints="2446" NumberOfCells="4585">
<Points>
<DataArray  type="Float64"  NumberOfComponents="3"  format="ascii">0 0.41 0  0 0 0  2.2 0 0  2.2 0.41 0  0.2404508497187474 0.2293892626146237 0  0.25 0.2 0  0.2404508497187474 0.1706107373853764 0  0.2154508497187474 0.1524471741852423 0  0.1845491502812526 0.1524471741852423 0  0.1595491502812526 0.1706107373853764 0  0.15 0.2 0  0.1595491502812526 0.2293892626146237 0  0.1845491502812527 0.2475528258147577 0  0.2154508497187474 0.2475528258147577 0  1.1 0 0  1.1 0.41 0  0 0.205 0  0.55 0 0  0.55 0.41 0  0.275 0 0  0.275 0.41 0  1.65 0.41 0  1.65 0 0  0.8250000000000001 0.41 0  0.8250000000000001 0 0  1.375 0 0  1.375 0.41 0  1.925 0 0  1.925 0.41 0  1.5125 0.205 0  1.7875 0.205 0  0.6875 0.205 0  0.9625000000000001 0.205 0  1.2375 0.205 0  2.2 0.205 0  0.4687002074688797 0.2068568464730291 0  1.99375 0.2152743902439024 0  2.0625 0 0  2.0625 0.41 0  2.2 0.3075 0  0.4125 0 0  0.4125 0.41 0  1.7875 0.41 0  1.375 0.1486128048780488 0  1.5125 0 0  1.7875 0 0  1.5125 0.41 0  0.8250000000000001 0.2613871951219511 0  0.9625000000000001 0.41 0  0.9625000000000001 0 0  0.6875 0.41 0  0.6875 0 0  0.1375 0 0  0.1375 0.41 0  1.2375 0 0  1.1 0.1486128048780487 0  1.2375 0.41 0  1.65 0.1486128048780487 0  1.126715909090909 0.2793064024390244 0  1.676715909090909 0.2793064024390244 0  0.8517159090909092 0.1306935975609756 0  1.348284090909091 0.2793064024390244 0  0.34375 0.3032389320646208 0  1.894702181800738 0.1282910975492754 0  2.092797818199262 0.1282910975492754 0  1.85625 0.3075 0  0.61875 0.3075 0  0.61875 0.1025 0  0.3648540804333487 0.1240075933101478 0  0 0.3075 0  0 0.1025 0  2.099172119769978 0.25625 0  0.48125 0.09238439620688085 0  0.5781001037344399 0.2059284232365146 0  0.48125 0.3196743479159776 0  0.7265881057911006 0.3055240343720796 0  1.99375 0.08395950269330846 0  1.459960956013612 0.3075 0  1.569025960719943 0.2986889805672169 0  0.75625 0.08213100772579164 0  1.03125 0.3278689922742084 0  0.923871252904788 0.3078247185783941 0  1.959375 0.3126371951219512 0  1.749222215368287 0.1025 0  1.275777784631713 0.1025 0  2.2 0.1025 0  1.225938124459196 0.3075 0  1.550777784631713 0.1025 0  1.000777784631713 0.1025 0  1.44375 0.07430640243902442 0  1.16875 0.07430640243902437 0  1.899250267340833 0.2229966846119207 0  0.1020898364287272 0.3140258291809757 0  1.766482954545455 0.2934032012195123 0  0.3405058858996321 0.2119987970531874 0  0.7710785630958338 0.1710968191298857 0  1.046078563095834 0.2389031808701144 0  0.2 0.3400647632937836 0  1.421109702350723 0.2261157654379721 0  0.2800464974185557 0.08982544815605742 0  0.098916018031319 0.09171660955420841 0  2.13125 0 0  2.118919042110979 0.3422084711244843 0  1.30625 0.41 0  0.89375 0 0  1.597888256393107 0.2173787389261347 0  0.20625 0 0  1.829299675393195 0.07400700849299596 0  1.71875 0.41 0  1.16875 0.41 0  2.038220665644273 0.332420740103091 0  0.34375 0 0  0.417496017710808 0.2696595573092803 0  0.2 0.07687845740457822 0  0.9295982307099278 0.1343158415898188 0  0.07390688010811153 0.1697064032433452 0  0.5238366813727013 0.2578302467013575 0  0.05452951551825875 0.25625 0  0.5229630068078351 0.1548816096928243 0  1.452769549894695 0.1548122580621249 0  1.369219062229598 0.07430640243902442 0  1.30625 0 0  0.8504409521244898 0.3356935975609756 0  0.8821881244591965 0.205 0  1.720943423819132 0.1714577452753128 0  1.157188124459196 0.205 0  1.094219062229598 0.07430640243902437 0  1.03125 0 0  1.304056576180868 0.1714577452753128 0  1.67579304192913 0.07430640243902437 0  0.2751941921308361 0.3346083473122598 0  1.209670467133757 0.1362100266964769 0  1.025335513626278 0.1700681449722324 0  0.7562500000000001 0.41 0  1.58125 0 0  0.7567170593862014 0.2409196493502535 0  0.6926714215682891 0.1272249611432207 0  0.4139715849905988 0.3397932387114203 0  0.9840787304190477 0.2717749043358119 0  0.06875000000000001 0.41 0  0 0.35875 0  0.9281250000000001 0.06276726142697993 0  0.5507396469029935 0.3219409231578227 0  0.5504468037989405 0.09136885600634273 0  1.58125 0.41 0  1.631724228912893 0.3381867502687533 0  1.825608881788174 0.14499488549201 0  1.85625 0 0  1.44375 0 0  1.44375 0.41 0  1.85625 0.41 0  2.13125 0.41 0  0.7562500000000001 0 0  0.89375 0.41 0  0.4812500000000001 0 0  0.34375 0.41 0  0.4812500000000001 0.41 0  0.20625 0.41 0  0.06875000000000001 0 0  1.16875 0 0  0.61875 0 0  0.61875 0.41 0  1.03125 0.41 0  1.71875 0 0  1.99375 0 0  1.99375 0.41 0  1.340625 0.3489494290853124 0  1.134375 0.3489494290853123 0  1.700180620188976 0.3438659752031281 0  2.135782184673599 0.07126652247502523 0  1.668441847249787 0.2129203728327609 0  1.295782514339747 0.2378437748815763 0  0.8233075729931248 0.06842334294821524 0  1.409375 0.3520314716057996 0  0.403505597322782 0.182067236678212 0  0.378125 0.05794951541303489 0  0.3043468223249023 0.1518321115979534 0  2.129248544730567 0.1906135162504124 0  2.060771381434487 0.1989445750470348 0  2.013252586573865 0.1496169464686054 0  1.942766402200229 0.1734448904596831 0  1.895522487186454 0.06076163953489683 0  2.069553871656643 0.06605731020975725 0  1.274680914880868 0.3520219391081363 0  1.614713220494657 0.09473434380863296 0  0.7899021319497519 0.3149123934144827 0  0.69518737419149 0.0634051089053758 0  0.2971740475496061 0.2592172353407536 0  1.72990325744076 0.2380068107952482 0  1.356580098625191 0.2120393231351682 0  2.034370752044885 0.2668681600792073 0  1.51768709249349 0.3426260931494756 0  1.561883724969884 0.1650446847858835 0  1.197344062229598 0.2523725417393646 0  1.804085235518364 0.3468178408964637 0  1.817887819205233 0.2589243285818559 0  1.905897727272727 0.3485060975609756 0  0.6719798073392919 0.2688965171178177 0  0 0.05125 0  0.653125 0.35875 0  0.6396896119294488 0.1627615407790282 0  0.4274150154087412 0.1242548552168279 0  1.192836486056382 0.3562350748565544 0  0.8279124365364005 0.183856489168822 0  1.097485222388854 0.2083571153401724 0  1.28257088594801 0.2944411014911587 0  1.474860187679412 0.2504218616229368 0  1.406767003493824 0.2829282258560709 0  0.446875 0.04619219810344041 0  0.515625 0.04585361801037557 0  0.592043440706648 0.05125 0  1.845656689180403 0.1998310418452388 0  2.144958525570388 0.2909790873294231 0  0.6171090763650112 0.2492366900333857 0  2.2 0.15375 0  0.5145586920831158 0.3648371739579888 0  1.57794966442982 0.3540357145964566 0  0.721875 0.3633107922168974 0  0.0496154796471391 0.333125 0  0.5843750000000001 0.3662560860076676 0  0.5810878747760798 0.1474002776121195 0  1.508991196088596 0.1421783375065625 0  0.8840670607017558 0.2640994375393898 0  0.09776612425612034 0.2204896805326566 0  1.50436820029908 0.06143401634903343 0  1.223857000523521 0.0823554862453532 0  1.153316824384777 0.1289850171317837 0  2.148922302309752 0.1258841779285271 0  0.309375 0.04312325590431198 0  1.621993280276081 0.2841214267927899 0  1.550118654119087 0.2461998729100966 0  1.327182649291491 0.1216967252533594 0  1.051977450479407 0.1221382572915816 0  1.753125 0.04556020050186112 0  1.271875 0.04556020050186116 0  0.9816084133102366 0.05126138213476004 0  1.039051841454368 0.0572224914831029 0  0.9719230514536006 0.3480477870845102 0  1.94956388244759 0.1180512551534177 0  1.949997712993411 0.04965831614304109 0  1.771961817615021 0.1530278789497521 0  1.909246823951428 0.2812757146784527 0  0.2459536687882397 0.04668633953831142 0  1.948575539857022 0.2445328248721197 0  1.697271520964565 0.1233917627620729 0  0.7964897648514618 0.1211426571931604 0  1.065625 0.3689344961371042 0  1.085849084308977 0.3170853572226867 0  0.4702981435440001 0.260434880697798 0  1.577403511714593 0.05463601888079143 0  0.05622663515370135 0.05493816910862376 0  0.3267207591099919 0.3566194660323104 0  0.9003051618565143 0.3564049499960621 0  1.751571320346033 0.3651102912045228 0  0.1583785085108421 0.2994699345738728 0  0.1455283439499995 0.3542795598723423 0  2.2 0.35875 0  0.2347662494194072 0.298325008655211 0  0.1527284455616188 0.1065771775690181 0  0.1382139529076665 0.05427454456341477 0  0.8749341636311069 0.05110114999892954 0  0.643661668713109 0.05693499781019222 0  1.466879772203159 0.3611261772912453 0  1.990280163552011 0.3564754268533217 0  1.17471064520912 0.2990917256188288 0  0.5202693090594349 0.206382495511728 0  0 0.25625 0  2.2 0.25625 0  2.2 0.05125 0  0 0.15375 0  1.853978576207987 0.35875 0  0.9787513713939683 0.1487523696999336 0  0.240625 0.3722153812029779 0  1.515638456102889 0.2882700110184686 0  0.09048297387599738 0.3637717362208066 0  2.150453692751374 0.2387066338105111 0  1.323782677156475 0.04897634338873398 0  0.8074131292871642 0.3624701995505916 0  1.409375 0.03715320121951221 0  1.406484531114799 0.1087852750766809 0  1.134375 0.03715320121951218 0  1.627401732573545 0.04552157221025036 0  0.1170173172005315 0.1427610859166811 0  2.045405893604797 0.1105340662939892 0  1.255408269734577 0.1577307500159216 0  2.028125 0.03707597992059326 0  0.4743610090857199 0.1421513964721819 0  0.9354010469015898 0.250631300585664 0  0.04420832937638274 0.128125 0  0.8922386349349938 0.0992956419364831 0  0.1197849154434487 0.2663398672460083 0  1.248258025468107 0.2565907092181813 0  0.3746885856929528 0.370723531618974 0  1.203125 0.0366132337404304 0  0.5724622277005015 0.2751253816079333 0  0.3365425205162783 0.08395777655057959 0  2.072662025974815 0.2975086504196739 0  0.4581080832182547 0.3648371739579888 0  0.3874522734668214 0.2295447548840689 0  0.7827853612484443 0.04106550386289586 0  1.887722846421017 0.1760882698830035 0  1.472640588990488 0.1118278026240017 0  1.865937103925594 0.2604137786483804 0  1.463913572748262 0.2030442564990043 0  1.376426316059077 0.3186741374914345 0  0.6641993820150034 0.3141688596240831 0  0.2943117490824315 0.2130987422685822 0  0.3478153998082709 0.1666571081082676 0  0.3427990510599805 0.2575950027870776 0  0.7997118993855807 0.2216171933356366 0  
[...]
<PointData  Vectors="f_31"> 
<DataArray  type="Float64"  Name="f_31"  NumberOfComponents="3" format="ascii">2.1531995517285158e-06 1.0913547408818828e-07 0.0000000000000000e+00  -2.2072997893356461e-06 -3.9204327153845807e-08 0.0000000000000000e+00  3.9602271191384302e-06 -1.1986890489287587e-08 0.0000000000000000e+00  -1.7640145282923387e-05 -4.7796041253385767e-08 0.0000000000000000e+00  -1.2598684216856997e-05 4.2819970975153609e-06 0.0000000000000000e+00  -1.4023057686941606e-05 1.8915151320469831e-05 0.0000000000000000e+00  -1.5289311428969509e-05 1.5338239426253625e-05 0.0000000000000000e+00  -1.0042708733560280e-05 -7.5828251413788585e-06 0.0000000000000000e+00  -1.3791594148829763e-05 -6.7278433132039131e-06 0.0000000000000000e+00  -7.8251482336296358e-06 1.7925267336109103e-06 0.0000000000000000e+00  8.6932785442422874e-07 8.1307916100251179e-06 0.0000000000000000e+00  -6.2930078171474087e-06 -3.1068762329193018e-06 0.0000000000000000e+00  8.2857201385761918e-06 4.2721305311824704e-06 0.0000000000000000e+00  -1.4315646008355534e-05 2.8294171472102912e-06 0.0000000000000000e+00  -2.8436847656701649e-06 -1.9994200364944530e-08 0.0000000000000000e+00  -3.9063122481926201e-07 -1.8074102646454235e-08 0.0000000000000000e+00  1.5000041497042982e+00 1.3701969767019568e-06 0.0000000000000000e+00  -1.3482714762227450e-05 -4.0606512489188856e-07 0.0000000000000000e+00  -3.5441381751722100e-06 2.6024949599948139e-08 0.0000000000000000e+00  1.7206155927446367e-05 -1.7375321474738477e-06 0.0000000000000000e+00  9.4200573955174850e-06 1.4684935140652217e-06 0.0000000000000000e+00  2.3478346479607545e-07 -1.1461643152347375e-08 0.0000000000000000e+00  -3.6338636756895031e-07 -3.3122785809020841e-08 0.0000000000000000e+00  7.6902091410681342e-07 -1.4127108014860165e-08 0.0000000000000000e+00  -6.0331662421347107e-06 3.1682962307953897e-08 0.0000000000000000e+00  -4.0834773385664005e-06 -1.1282671140028919e-08 0.0000000000000000e+00  -9.5997733500515056e-07 -4.1504387875401014e-08 0.0000000000000000e+00  -3.4141245644040642e-06 1.0638503896936959e-07 0.0000000000000000e+00  -3.0352141539026535e-06 -5.3506463130298868e-08 0.0000000000000000e+00  1.0952640227095700e+00 5.3263276608133393e-05 0.0000000000000000e+00  1.0951922900952826e+00 1.2560501021276814e-05 0.0000000000000000e+00  1.0945125530546371e+00 -2.9649784634196634e-03 0.0000000000000000e+00  1.0950874664121693e+00 -2.1627259612809791e-04 0.0000000000000000e+00  1.0949117622791189e+00 -2.9487423155960600e-05 0.0000000000000000e+00  1.0952410077732460e+00 9.4834889950309281e-05 0.0000000000000000e+00  9.4943738466383043e-01 -3.9270699018003834e-02 0.0000000000000000e+00  1.0950571325447354e+00 -1.3989541450550212e-05 0.0000000000000000e+00  -1.9264022216233733e-07 2.7281062751208005e-08 0.0000000000000000e+00  -1.6366275476725448e-06 -9.9951131937214049e-08 0.0000000000000000e+00  1.0947382949089433e+00 2.2155306514756471e-04 0.0000000000000000e+00  -2.7462565224629229e-06 -9.3432457348506759e-08 0.0000000000000000e+00  -2.8098327046842246e-06 1.0130909760783344e-07 0.0000000000000000e+00  -6.4773556691450002e-06 8.8547636011530021e-08 0.0000000000000000e+00  1.0951590636261643e+00 1.0018627203998931e-04 0.0000000000000000e+00  -1.4793256253552156e-06 1.8188144108993996e-08 0.0000000000000000e+00  -4.4751363337950329e-06 -5.8939776563102042e-08 0.0000000000000000e+00  4.1612029971210417e-07 -5.6241952259939687e-08 0.0000000000000000e+00  1.0955738826740398e+00 -7.0148278415729467e-04 0.0000000000000000e+00  -2.4781624778676628e-06 -1.5418597207907878e-08 0.0000000000000000e+00  2.3678327056362674e-06 -7.9501788697348506e-08 0.0000000000000000e+00  2.6646639189931875e-06 -2.6416395201334577e-08 0.0000000000000000e+00  -7.3883595396171788e-06 1.7536701378777662e-07 0.0000000000000000e+00  -4.9852063058439705e-06 3.9332528167828093e-07 0.0000000000000000e+00  -4.8984487879963501e-06 1.5109173931964304e-07 0.0000000000000000e+00  3.4302597115297607e-07 -1.4160220890539693e-08 0.0000000000000000e+00  1.0949360776778374e+00 -9.9028296920884812e-05 0.0000000000000000e+00  -1.9792176336020333e-06 -4.0889032172699046e-08 0.0000000000000000e+00  1.0952049127748626e+00 -4.0939570846556449e-05 0.0000000000000000e+00  1.0950493962950214e+00 -5.5234721036396232e-06 0.0000000000000000e+00  1.0949845337345534e+00 1.4568786042144189e-05 0.0000000000000000e+00  1.0948688506783690e+00 -5.8565422815038087e-04 0.0000000000000000e+00  1.0952289786162794e+00 -1.0139561467279887e-04 0.0000000000000000e+00  1.7481121468994787e+00 -2.6389991486347109e-01 0.0000000000000000e+00  1.0951924006497276e+00 -1.2461725203450870e-04 0.0000000000000000e+00  1.0951605973153542e+00 2.4624217766707224e-05 0.0000000000000000e+00  1.0949513229474614e+00 1.6785470344803338e-04 0.0000000000000000e+00  1.1034224846116194e+00 -6.2807155688757036e-03 0.0000000000000000e+00  1.0946497780001478e+00 -2.6497820568105175e-04 0.0000000000000000e+00  1.5766927088449969e+00 5.2009792488819429e-01 0.0000000000000000e+00  1.1249989746992439e+00 6.2504676344713372e-07 0.0000000000000000e+00  1.1249900579861294e+00 9.4631631622084653e-07 0.0000000000000000e+00  1.0950981024151560e+00 -8.4212285192173780e-06 0.0000000000000000e+00  1.1535405833306109e+00 5.8283722996249891e-02 0.0000000000000000e+00  1.0834005140986860e+00 -8.5269978727577009e-03 0.0000000000000000e+00  1.1810819389910734e+00 -6.4986174288832757e-02 0.0000000000000000e+00  1.0972158017837983e+00 -1.1496704729826838e-03 0.0000000000000000e+00  1.0945967051979935e+00 1.2452284059216137e-04 0.0000000000000000e+00  1.0950729502854666e+00 1.9961963290305684e-04 0.0000000000000000e+00  1.0947148742735742e+00 5.9369352362060205e-05 0.0000000000000000e+00  1.0933967138835341e+00 -9.3922805676945379e-04 0.0000000000000000e+00  1.0937608927549793e+00 1.1774114321016910e-04 0.0000000000000000e+00  1.0952903331429011e+00 -7.0869579369033437e-05 0.0000000000000000e+00  1.0950146975167951e+00 2.5216105741592949e-05 0.0000000000000000e+00  1.0945237822268079e+00 -1.2426356186182418e-04 0.0000000000000000e+00  1.0951625203362518e+00 -5.0270132681289429e-05 0.0000000000000000e+00  1.0947275227746320e+00 -5.8001925593437130e-05 0.0000000000000000e+00  1.0951490891242344e+00 3.8565761822250116e-06 0.0000000000000000e+00  1.0947993116794821e+00 2.7647757663085403e-05 0.0000000000000000e+00  1.0951835206557050e+00 -1.0203901882666590e-04 0.0000000000000000e+00  1.0939472920684572e+00 -1.7955983866617807e-04 0.0000000000000000e+00  1.0935241657523880e+00 -1.9674431200039123e-05 0.0000000000000000e+00  1.0950727231042672e+00 1.3151959320146543e-05 0.0000000000000000e+00  1.1859526129503155e+00 2.4834380893663402e-01 0.0000000000000000e+00  1.0950021192702031e+00 -8.2868962629158480e-05 0.0000000000000000e+00  -5.0140198116873524e-01 -1.1286512953324113e-01 0.0000000000000000e+00  1.0947720147908033e+00 -1.2880430060952526e-03 0.0000000000000000e+00  1.0951682401560197e+00 -6.4282112747216408e-05 0.0000000000000000e+00  1.3947688735791790e+00 2.0188086312283557e-01 0.0000000000000000e+00  1.0950995086336819e+00 2.4658622874089895e-05 0.0000000000000000e+00  1.8669403386820507e+00 4.9888541010158927e-03 0.0000000000000000e+00  1.1424623729726284e+00 -2.4546318913277881e-01 0.0000000000000000e+00  -5.2052209558989633e-07 -2.2096414876153700e-08 0.0000000000000000e+00  1.0918167028238417e+00 -6.5173448466923517e-05 0.0000000000000000e+00  -2.6847636226972170e-06 5.7294672011995223e-08 0.0000000000000000e+00  -7.8216124195865653e-06 1.2834018370837012e-08 0.0000000000000000e+00  1.0952864051114235e+00 1.1863769315965831e-05 0.0000000000000000e+00  7.2308446212852556e-06 -3.3976566610152512e-06 0.0000000000000000e+00  1.0935731475900152e+00 -8.6495782971186277e-05 0.0000000000000000e+00  -4.5417314082248344e-06 -1.4253955411867199e-07 0.0000000000000000e+00  -2.5221584652157509e-06 1.8009197253053273e-08 0.0000000000000000e+00  1.0939612084884418e+00 2.3210620381633684e-04 0.0000000000000000e+00  1.9761319432669229e-06 3.8819935108316727e-06 0.0000000000000000e+00  1.1776966690924817e+00 -3.1499899039448431e-01 0.0000000000000000e+00  1.5323676191635582e+00 -2.5112277479377698e-01 0.0000000000000000e+00  1.0949659468704844e+00 -2.6160681899724746e-04 0.0000000000000000e+00  1.3373062449054773e+00 -1.0641584092775697e-01 0.0000000000000000e+00  1.0887371355459647e+00 -4.9578367731131265e-02 0.0000000000000000e+00  1.3735634848488860e+00 1.2536886905412287e-01 0.0000000000000000e+00  1.0705966741851638e+00 2.5111867143711053e-02 0.0000000000000000e+00  1.0951177261012310e+00 4.3707122489102208e-05 0.0000000000000000e+00  1.0926861584060166e+00 1.4425631458752828e-05 0.0000000000000000e+00  -6.8979066427414450e-07 3.5624295282023398e-08 0.0000000000000000e+00  1.0935599953686004e+00 -3.5842496805585085e-04 0.0000000000000000e+00  1.0951071738713583e+00 -4.6370865525760427e-04 0.0000000000000000e+00  1.0951029547508542e+00 1.4037803087663671e-05 0.0000000000000000e+00  1.0948984851862524e+00 -3.5403610456230379e-05 0.0000000000000000e+00  1.0936650395084542e+00 3.8334286755021240e-06 0.0000000000000000e+00  -3.8450797434458262e-06 8.4337227351456786e-08 0.0000000000000000e+00  1.0950552510707738e+00 2.8078954809382290e-05 0.0000000000000000e+00  1.0930753320623985e+00 -3.1562276586845724e-04 0.0000000000000000e+00  1.6122727158275203e+00 3.1953257129370333e-02 0.0000000000000000e+00  1.0950402266356358e+00 2.1130462446871046e-07 0.0000000000000000e+00  1.0950368292107446e+00 -1.2685422359677378e-04 0.0000000000000000e+00  -1.4206189571187689e-06 -3.1084208691262974e-09 0.0000000000000000e+00  -1.4729856373336994e-05 -1.1289986339455148e-07 0.0000000000000000e+00  1.0957592899331108e+00 -1.5325497116937838e-03 0.0000000000000000e+00  1.0940575716177456e+00 -1.5739567513875033e-03 0.0000000000000000e+00  1.2935099742507272e+00 -9.3774672043331675e-02 0.0000000000000000e+00  1.0952364862353290e+00 -1.1991829175297048e-04 0.0000000000000000e+00  -4.1887783371702427e-06 -1.0979505160774046e-06 0.0000000000000000e+00  6.5625084103973219e-01 2.3476850053622738e-07 0.0000000000000000e+00  1.0877329095339614e+00 1.8755789557771120e-04 0.0000000000000000e+00  1.1242769015613601e+00 -1.6265078411955576e-02 0.0000000000000000e+00  1.1066730274467760e+00 8.2644028416450806e-03 0.0000000000000000e+00  -6.3243012095326941e-06 -3.7494248769432035e-08 0.0000000000000000e+00  1.0927061739200268e+00 8.2090372472232279e-05 0.0000000000000000e+00  1.0952183431138303e+00 -7.8816659560304839e-06 0.0000000000000000e+00  -4.0710087807216693e-06 6.8234403959590755e-08 0.0000000000000000e+00  -1.1384777960409497e-05 4.0109559941815678e-08 0.0000000000000000e+00  -5.8263877872997977e-06 -8.5320995973631810e-08 0.0000000000000000e+00  1.1067118462966834e-06 2.2754465429381388e-09 0.0000000000000000e+00  -2.7661449348080790e-06 7.8327584202181297e-08 0.0000000000000000e+00  -9.9379262277240960e-07 4.7461452796680944e-08 0.0000000000000000e+00  1.4568177642938567e-07 -3.6195419247569822e-08 0.0000000000000000e+00  -1.0512551629799416e-05 -1.4028049549570002e-08 0.0000000000000000e+00  4.0774938628645321e-06 -3.9095985391533703e-06 0.0000000000000000e+00  -1.6596522930309950e-05 4.7386783979445009e-08 0.0000000000000000e+00  4.2343573926268866e-06 3.2794730617868925e-06 0.0000000000000000e+00  -1.2405396064894911e-06 1.1696354373534011e-06 0.0000000000000000e+00  -6.1503134024376148e-07 4.7389671829640522e-08 0.0000000000000000e+00  -8.4456445187408252e-06 5.1551485476354569e-09 0.0000000000000000e+00  -6.5781243416684147e-06 -4.7913544018232809e-08 0.0000000000000000e+00  -7.8846969830290230e-07 1.6515876695926287e-08 0.0000000000000000e+00  -8.4393830408154745e-06 -2.4213523417567246e-09 0.0000000000000000e+00  -2.2599263253101816e-06 -6.5695374779005892e-08 0.0000000000000000e+00  -7.8917487327087035e-07 2.0288032160787255e-08 0.0000000000000000e+00  1.0849509202498100e+00 -2.6745902658278654e-04 0.0000000000000000e+00  1.0868238409577990e+00 4.0566997460866737e-04 0.0000000000000000e+00  1.0902844518239825e+00 1.0837543975236674e-04 0.0000000000000000e+00  1.0922767634350643e+00 -2.7825022814205165e-04 0.0000000000000000e+00  1.0952157803960072e+00 1.2427159935673988e-05 0.0000000000000000e+00  1.0949819556907030e+00 -4.3821613540129468e-05 0.0000000000000000e+00  1.0906030006213236e+00 -9.0046500216177990e-04 0.0000000000000000e+00  1.0834584293086331e+00 4.2756931468144424e-04 0.0000000000000000e+00  5.5100548952455242e-01 2.2933481876246362e-01 0.0000000000000000e+00  1.3082534766587330e+00 9.0679376864673145e-02 0.0000000000000000e+00  6.1029950579303094e-01 -1.8062962061222178e-02 0.0000000000000000e+00  1.0951142073238698e+00 6.6625198959173972e-05 0.0000000000000000e+00  1.0951588022468242e+00 8.2751791989647181e-06 0.0000000000000000e+00  1.0951167061054108e+00 -9.0941785095780957e-06 0.0000000000000000e+00  1.0950616490640210e+00 -1.7453656440025937e-05 0.0000000000000000e+00  1.0855528427091645e+00 -4.3925119933807468e-04 0.0000000000000000e+00  1.0899386143358742e+00 -6.3875730611728378e-05 0.0000000000000000e+00  1.0834376923775977e+00 3.8372693826266562e-04 0.0000000000000000e+00  1.0947850986339986e+00 -2.3048666427441081e-05 0.0000000000000000e+00  1.0957882190373436e+00 -4.0048381026418380e-04 0.0000000000000000e+00  1.0868642160761748e+00 -1.9094655270458212e-03 0.0000000000000000e+00  9.7609973194854105e-01 1.3965055329492382e-02 0.0000000000000000e+00  1.0951410509254025e+00 -1.1947862731875986e-05 0.0000000000000000e+00  1.0950040265622072e+00 -8.3048927803648912e-07 0.0000000000000000e+00  1.0951465490265804e+00 -1.0139011264011085e-05 0.0000000000000000e+00  1.0907400578381203e+00 5.5603496898117607e-04 0.0000000000000000e+00  1.0951498999893670e+00 3.3190410934613939e-05 0.0000000000000000e+00  1.0950096058613126e+00 -2.2310356931708472e-05 0.0000000000000000e+00  1.0897708719143009e+00 -1.9548168419309932e-04 0.0000000000000000e+00  1.0951756925508109e+00 3.9756332413537414e-05 0.0000000000000000e+00  1.0871234350485210e+00 3.5727708241061883e-04 0.0000000000000000e+00  1.0973168993710853e+00 -4.0060043282498072e-03 0.0000000000000000e+00  6.5624831395173167e-01 6.3830127043024662e-08 0.0000000000000000e+00  1.0748081636979345e+00 2.3691543508865372e-04 0.0000000000000000e+00  1.0923944338225244e+00 -1.8208704153773597e-03 0.0000000000000000e+00  1.1641974668879118e+00 2.2209646858436008e-01 0.0000000000000000e+00  1.0768292372712147e+00 -2.5136448191607417e-04 0.0000000000000000e+00  1.0948962669151026e+00 -7.9161209430980120e-04 0.0000000000000000e+00  1.0949645602978670e+00 -7.9286420863678705e-05 0.0000000000000000e+00  1.0951192017396567e+00 -6.4040669509461356e-05 0.0000000000000000e+00  1.0950565199935662e+00 5.5487533703150798e-05 0.0000000000000000e+00  1.0952347704724177e+00 1.8676196109115931e-05 0.0000000000000000e+00  1.1371110791334671e+00 2.9296611600410121e-02 0.0000000000000000e+00  1.0591560241115316e+00 -1.0531245272315286e-02 0.0000000000000000e+00  1.0689459084680626e+00 -4.9945054663934974e-03 0.0000000000000000e+00  1.0951158936688727e+00 1.2483195313626604e-05 0.0000000000000000e+00  1.0951875490116771e+00 1.1525268317875429e-04 0.0000000000000000e+00  1.0953044559005505e+00 -9.2937084820899109e-03 0.0000000000000000e+00  1.0950155600242075e+00 1.9343215483274361e-04 0.0000000000000000e+00  1.0771333961419480e+00 3.1599806696760756e-03 0.0000000000000000e+00  1.0810941489538939e+00 -1.0801366459061140e-04 0.0000000000000000e+00  1.0539314483950799e+00 6.2824550203681396e-04 0.0000000000000000e+00  9.4121505102980629e-01 9.2538899451388323e-02 0.0000000000000000e+00  1.0460146937889929e+00 3.5997879493153474e-03 0.0000000000000000e+00  1.0890980261119780e+00 4.2005424297276838e-03 0.0000000000000000e+00  1.0950981781064493e+00 3.6010266276930758e-05 0.0000000000000000e+00  1.0953708870450907e+00 -3.9155419160404704e-04 0.0000000000000000e+00  1.2246081202772330e+00 1.6408279090528319e-01 0.0000000000000000e+00  1.0883031356569906e+00 -4.4068180628867158e-04 0.0000000000000000e+00  1.0943294286699741e+00 -2.3378379669307731e-05 0.0000000000000000e+00  1.0950890290068382e+00 -2.0239054344072967e-05 0.0000000000000000e+00  1.0951498358942608e+00 -9.7097105863925105e-06 0.0000000000000000e+00  1.2455256746137322e+00 2.1495233166815893e-02 0.0000000000000000e+00  1.0949085644014154e+00 -8.4851569358115302e-06 0.0000000000000000e+00  1.0949758683786894e+00 1.1977900539154317e-05 0.0000000000000000e+00  1.0951232052206816e+00 1.0047308056800081e-04 0.0000000000000000e+00  1.0950067051859158e+00 -1.8679627780223031e-04 0.0000000000000000e+00  1.0484779289906982e+00 7.8999777156062967e-05 0.0000000000000000e+00  1.0480720416354061e+00 -7.5730566751894355e-04 0.0000000000000000e+00  1.0724346314100377e+00 1.2503300836710416e-04 0.0000000000000000e+00  1.0822287278829961e+00 -5.9431224502276255e-04 0.0000000000000000e+00  1.0877402259265843e+00 2.7724120269274243e-04 0.0000000000000000e+00  1.0950771278859039e+00 -9.3889930549941514e-05 0.0000000000000000e+00  1.0614901244325488e+00 -9.4691980182293005e-04 0.0000000000000000e+00  1.0952294835600351e+00 1.4122863008989173e-05 0.0000000000000000e+00  1.0951656728356818e+00 4.9638761607706922e-05 0.0000000000000000e+00  1.2991788499869774e+00 -6.4332947330329238e-02 0.0000000000000000e+00  1.0951131174570174e+00 -1.8717466451550657e-05 0.0000000000000000e+00  1.0951346795963686e+00 -7.3443878775987791e-05 0.0000000000000000e+00  1.0946062730602946e+00 -8.8338526874871305e-04 0.0000000000000000e+00  1.0215194335583340e+00 -2.4768805778044874e-05 0.0000000000000000e+00  1.0950970348289770e+00 8.6251392059583798e-05 0.0000000000000000e+00  1.0858347400779345e+00 -1.3096807457425128e-01 0.0000000000000000e+00  1.0768154075545049e+00 5.9186920987743940e-04 0.0000000000000000e+00  7.3712338625256790e-01 -7.7606680018302468e-02 0.0000000000000000e+00  1.2658774394706671e+00 -7.1280592011276978e-03 0.0000000000000000e+00  1.0739909196997102e+00 5.6766837736089623e-04 0.0000000000000000e+00  1.0445109893324198e+00 -8.4274207760477130e-04 0.0000000000000000e+00  1.5336272840388534e+00 4.5576662658818429e-01 0.0000000000000000e+00  1.0062883330173342e+00 1.6402384877368217e-01 0.0000000000000000e+00  1.0685209090166883e+00 1.2368000349904694e-03 0.0000000000000000e+00  1.9135358802745883e+00 2.0215683400757767e-01 0.0000000000000000e+00  1.4705350545915790e+00 -5.0411358866699707e-01 0.0000000000000000e+00  9.8015129237528709e-01 -1.7968969381057032e-01 0.0000000000000000e+00  1.0675725958877313e+00 -6.0034922753801167e-04 0.0000000000000000e+00  1.0774667578063970e+00 -2.5739287688603721e-03 0.0000000000000000e+00  1.0620999279986565e+00 7.3289137746256072e-04 0.0000000000000000e+00  1.0762554087813776e+00 1.2939930692010139e-05 0.0000000000000000e+00  1.0950592983927960e+00 -7.8278078427900010e-05 0.0000000000000000e+00  1.0520168973229251e+00 -1.7057909202411375e-02 0.0000000000000000e+00  1.4062435061751615e+00 1.1349365868459888e-06 0.0000000000000000e+00  1.0951814743974162e+00 1.3532834752110083e-04 0.0000000000000000e+00  1.0695093729986036e+00 -1.5433309013404882e-03 0.0000000000000000e+00  1.4062427880597459e+00 1.0484609023556383e-06 0.0000000000000000e+00  1.0704429602357470e+00 5.6012111202377417e-04 0.0000000000000000e+00  1.0949610513212527e+00 -1.4569715832611900e-04 0.0000000000000000e+00  1.0687960683299982e+00 5.7034479127498455e-02 0.0000000000000000e+00  1.0949761921841643e+00 9.6549689651681290e-05 0.0000000000000000e+00  7.1258313236740334e-01 9.4075234784777140e-02 0.0000000000000000e+00  1.0951169725445193e+00 7.9137879037435505e-05 0.0000000000000000e+00  1.0623022394169472e+00 1.5541674214864095e-04 0.0000000000000000e+00  1.0570552845456576e+00 7.6029494172745110e-05 0.0000000000000000e+00  9.8851749897035968e-01 4.7375914828021409e-04 0.0000000000000000e+00  1.0952231904798899e+00 9.0879496812135222e-05 0.0000000000000000e+00  9.9042168380192952e-01 3.2090368000261699e-05 0.0000000000000000e+00  1.0473144702732169e