<?xml version="1.0"?>
<VTKFile type="UnstructuredGrid"  version="0.1"  >
<UnstructuredGrid>
<Piece  NumberOfPoints="2446" NumberOfCells="4585">
<Points>
<DataArray  type="Float64"  NumberOfComponents="3"  format="ascii">0 0.41 0  0 0 0  2.2 0 0  2.2 0.41 0  0.2404508497187474 0.2293892626146237 0  0.25 0.2 0  0.2404508497187474 0.1706107373853764 0  0.2154508497187474 0.1524471741852423 0  0.1845491502812526 0.1524471741852423 0  0.1595491502812526 0.1706107373853764 0  0.15 0.2 0  0.1595491502812526 0.2293892626146237 0  0.1845491502812527 0.2475528258147577 0  0.2154508497187474 0.2475528258147577 0  1.1 0 0  1.1 0.41 0  0 0.205 0  0.55 0 0  0.55 0.41 0  0.275 0 0  0.275 0.41 0  1.65 0.41 0  1.65 0 0  0.8250000000000001 0.41 0  0.8250000000000001 0 0  1.375 0 0  1.375 0.41 0  1.925 0 0  1.925 0.41 0  1.5125 0.205 0  1.7875 0.205 0  0.6875 0.205 0  0.9625000000000001 0.205 0  1.2375 0.205 0  2.2 0.205 0  0.4687002074688797 0.2068568464730291 0  1.99375 0.2152743902439024 0  2.0625 0 0  2.0625 0.41 0  2.2 0.3075 0  0.4125 0 0  0.4125 0.41 0  1.7875 0.41 0  1.375 0.1486128048780488 0  1.5125 0 0  1.7875 0 0  1.5125 0.41 0  0.8250000000000001 0.2613871951219511 0  0.9625000000000001 0.41 0  0.9625000000000001 0 0  0.6875 0.41 0  0.6875 0 0  0.1375 0 0  0.1375 0.41 0  1.2375 0 0  1.1 0.1486128048780487 0  1.2375 0.41 0  1.65 0.1486128048780487 0  1.126715909090909 0.2793064024390244 0  1.676715909090909 0.2793064024390244 0  0.8517159090909092 0.1306935975609756 0  1.348284090909091 0.2793064024390244 0  0.34375 0.3032389320646208 0  1.894702181800738 0.1282910975492754 0  2.092797818199262 0.1282910975492754 0  1.85625 0.3075 0  0.61875 0.3075 0  0.61875 0.1025 0  0.3648540804333487 0.1240075933101478 0  0 0.3075 0  0 0.1025 0  2.099172119769978 0.25625 0  0.48125 0.09238439620688085 0  0.5781001037344399 0.2059284232365146 0  0.48125 0.3196743479159776 0  0.7265881057911006 0.3055240343720796 0  1.99375 0.08395950269330846 0  1.459960956013612 0.3075 0  1.569025960719943 0.2986889805672169 0  0.75625 0.08213100772579164 0  1.03125 0.3278689922742084 0  0.923871252904788 0.3078247185783941 0  1.959375 0.3126371951219512 0  1.749222215368287 0.1025 0  1.275777784631713 0.1025 0  2.2 0.1025 0  1.225938124459196 0.3075 0  1.550777784631713 0.1025 0  1.000777784631713 0.1025 0  1.44375 0.07430640243902442 0  1.16875 0.07430640243902437 0  1.899250267340833 0.2229966846119207 0  0.1020898364287272 0.3140258291809757 0  1.766482954545455 0.2934032012195123 0  0.3405058858996321 0.2119987970531874 0  0.7710785630958338 0.1710968191298857 0  1.046078563095834 0.2389031808701144 0  0.2 0.3400647632937836 0  1.421109702350723 0.2261157654379721 0  0.2800464974185557 0.08982544815605742 0  0.098916018031319 0.09171660955420841 0  2.13125 0 0  2.118919042110979 0.3422084711244843 0  1.30625 0.41 0  0.89375 0 0  1.597888256393107 0.2173787389261347 0  0.20625 0 0  1.829299675393195 0.07400700849299596 0  1.71875 0.41 0  1.16875 0.41 0  2.038220665644273 0.332420740103091 0  0.34375 0 0  0.417496017710808 0.2696595573092803 0  0.2 0.07687845740457822 0  0.9295982307099278 0.1343158415898188 0  0.07390688010811153 0.1697064032433452 0  0.5238366813727013 0.2578302467013575 0  0.05452951551825875 0.25625 0  0.5229630068078351 0.1548816096928243 0  1.452769549894695 0.1548122580621249 0  1.369219062229598 0.07430640243902442 0  1.30625 0 0  0.8504409521244898 0.3356935975609756 0  0.8821881244591965 0.205 0  1.720943423819132 0.1714577452753128 0  1.157188124459196 0.205 0  1.094219062229598 0.07430640243902437 0  1.03125 0 0  1.304056576180868 0.1714577452753128 0  1.67579304192913 0.07430640243902437 0  0.2751941921308361 0.3346083473122598 0  1.209670467133757 0.1362100266964769 0  1.025335513626278 0.1700681449722324 0  0.7562500000000001 0.41 0  1.58125 0 0  0.7567170593862014 0.2409196493502535 0  0.6926714215682891 0.1272249611432207 0  0.4139715849905988 0.3397932387114203 0  0.9840787304190477 0.2717749043358119 0  0.06875000000000001 0.41 0  0 0.35875 0  0.9281250000000001 0.06276726142697993 0  0.5507396469029935 0.3219409231578227 0  0.5504468037989405 0.09136885600634273 0  1.58125 0.41 0  1.631724228912893 0.3381867502687533 0  1.825608881788174 0.14499488549201 0  1.85625 0 0  1.44375 0 0  1.44375 0.41 0  1.85625 0.41 0  2.13125 0.41 0  0.7562500000000001 0 0  0.89375 0.41 0  0.4812500000000001 0 0  0.34375 0.41 0  0.4812500000000001 0.41 0  0.20625 0.41 0  0.06875000000000001 0 0  1.16875 0 0  0.61875 0 0  0.61875 0.41 0  1.03125 0.41 0  1.71875 0 0  1.99375 0 0  1.99375 0.41 0  1.340625 0.3489494290853124 0  1.134375 0.3489494290853123 0  1.700180620188976 0.3438659752031281 0  2.135782184673599 0.07126652247502523 0  1.668441847249787 0.2129203728327609 0  1.295782514339747 0.2378437748815763 0  0.8233075729931248 0.06842334294821524 0  1.409375 0.3520314716057996 0  0.403505597322782 0.182067236678212 0  0.378125 0.05794951541303489 0  0.3043468223249023 0.1518321115979534 0  2.129248544730567 0.1906135162504124 0  2.060771381434487 0.1989445750470348 0  2.013252586573865 0.1496169464686054 0  1.942766402200229 0.1734448904596831 0  1.895522487186454 0.06076163953489683 0  2.069553871656643 0.06605731020975725 0  1.274680914880868 0.3520219391081363 0  1.614713220494657 0.09473434380863296 0  0.7899021319497519 0.3149123934144827 0  0.69518737419149 0.0634051089053758 0  0.2971740475496061 0.2592172353407536 0  1.72990325744076 0.2380068107952482 0  1.356580098625191 0.2120393231351682 0  2.034370752044885 0.2668681600792073 0  1.51768709249349 0.3426260931494756 0  1.561883724969884 0.1650446847858835 0  1.197344062229598 0.2523725417393646 0  1.804085235518364 0.3468178408964637 0  1.817887819205233 0.2589243285818559 0  1.905897727272727 0.3485060975609756 0  0.6719798073392919 0.2688965171178177 0  0 0.05125 0  0.653125 0.35875 0  0.6396896119294488 0.1627615407790282 0  0.4274150154087412 0.1242548552168279 0  1.192836486056382 0.3562350748565544 0  0.8279124365364005 0.183856489168822 0  1.097485222388854 0.2083571153401724 0  1.28257088594801 0.2944411014911587 0  1.474860187679412 0.2504218616229368 0  1.406767003493824 0.2829282258560709 0  0.446875 0.04619219810344041 0  0.515625 0.04585361801037557 0  0.592043440706648 0.05125 0  1.845656689180403 0.1998310418452388 0  2.144958525570388 0.2909790873294231 0  0.6171090763650112 0.2492366900333857 0  2.2 0.15375 0  0.5145586920831158 0.3648371739579888 0  1.57794966442982 0.3540357145964566 0  0.721875 0.3633107922168974 0  0.0496154796471391 0.333125 0  0.5843750000000001 0.3662560860076676 0  0.5810878747760798 0.1474002776121195 0  1.508991196088596 0.1421783375065625 0  0.8840670607017558 0.2640994375393898 0  0.09776612425612034 0.2204896805326566 0  1.50436820029908 0.06143401634903343 0  1.223857000523521 0.0823554862453532 0  1.153316824384777 0.1289850171317837 0  2.148922302309752 0.1258841779285271 0  0.309375 0.04312325590431198 0  1.621993280276081 0.2841214267927899 0  1.550118654119087 0.2461998729100966 0  1.327182649291491 0.1216967252533594 0  1.051977450479407 0.1221382572915816 0  1.753125 0.04556020050186112 0  1.271875 0.04556020050186116 0  0.9816084133102366 0.05126138213476004 0  1.039051841454368 0.0572224914831029 0  0.9719230514536006 0.3480477870845102 0  1.94956388244759 0.1180512551534177 0  1.949997712993411 0.04965831614304109 0  1.771961817615021 0.1530278789497521 0  1.909246823951428 0.2812757146784527 0  0.2459536687882397 0.04668633953831142 0  1.948575539857022 0.2445328248721197 0  1.697271520964565 0.1233917627620729 0  0.7964897648514618 0.1211426571931604 0  1.065625 0.3689344961371042 0  1.085849084308977 0.3170853572226867 0  0.4702981435440001 0.260434880697798 0  1.577403511714593 0.05463601888079143 0  0.05622663515370135 0.05493816910862376 0  0.3267207591099919 0.3566194660323104 0  0.9003051618565143 0.3564049499960621 0  1.751571320346033 0.3651102912045228 0  0.1583785085108421 0.2994699345738728 0  0.1455283439499995 0.3542795598723423 0  2.2 0.35875 0  0.2347662494194072 0.298325008655211 0  0.1527284455616188 0.1065771775690181 0  0.1382139529076665 0.05427454456341477 0  0.8749341636311069 0.05110114999892954 0  0.643661668713109 0.05693499781019222 0  1.466879772203159 0.3611261772912453 0  1.990280163552011 0.3564754268533217 0  1.17471064520912 0.2990917256188288 0  0.5202693090594349 0.206382495511728 0  0 0.25625 0  2.2 0.25625 0  2.2 0.05125 0  0 0.15375 0  1.853978576207987 0.35875 0  0.9787513713939683 0.1487523696999336 0  0.240625 0.3722153812029779 0  1.515638456102889 0.2882700110184686 0  0.09048297387599738 0.3637717362208066 0  2.150453692751374 0.2387066338105111 0  1.323782677156475 0.04897634338873398 0  0.8074131292871642 0.3624701995505916 0  1.409375 0.03715320121951221 0  1.406484531114799 0.1087852750766809 0  1.134375 0.03715320121951218 0  1.627401732573545 0.04552157221025036 0  0.1170173172005315 0.1427610859166811 0  2.045405893604797 0.1105340662939892 0  1.255408269734577 0.1577307500159216 0  2.028125 0.03707597992059326 0  0.4743610090857199 0.1421513964721819 0  0.9354010469015898 0.250631300585664 0  0.04420832937638274 0.128125 0  0.8922386349349938 0.0992956419364831 0  0.1197849154434487 0.2663398672460083 0  1.248258025468107 0.2565907092181813 0  0.3746885856929528 0.370723531618974 0  1.203125 0.0366132337404304 0  0.5724622277005015 0.2751253816079333 0  0.3365425205162783 0.08395777655057959 0  2.072662025974815 0.2975086504196739 0  0.4581080832182547 0.3648371739579888 0  0.3874522734668214 0.2295447548840689 0  0.7827853612484443 0.04106550386289586 0  1.887722846421017 0.1760882698830035 0  1.472640588990488 0.1118278026240017 0  1.865937103925594 0.2604137786483804 0  1.463913572748262 0.2030442564990043 0  1.376426316059077 0.3186741374914345 0  0.6641993820150034 0.3141688596240831 0  0.2943117490824315 0.2130987422685822 0  0.3478153998082709 0.1666571081082676 0  0.3427990510599805 0.2575950027870776 0  0.7997118993855807 0.2216171933356366 0  
[...]
<PointData  Vectors="f_31"> 
<DataArray  type="Float64"  Name="f_31"  NumberOfComponents="3" format="ascii">2.1288361629544998e-06 8.1130008250295869e-08 0.0000000000000000e+00  -2.2530888917083086e-06 -1.1553624587739947e-08 0.0000000000000000e+00  4.2429244180671264e-06 -6.6828949002618585e-08 0.0000000000000000e+00  -1.7127095338716455e-05 4.7924729189535874e-09 0.0000000000000000e+00  -6.5175416222090362e-06 2.5877773925399350e-06 0.0000000000000000e+00  -1.4141157917613972e-05 2.0554674540379740e-05 0.0000000000000000e+00  -1.3439035812900769e-05 1.1964657269620875e-05 0.0000000000000000e+00  -7.8429446802127961e-06 -5.2814351237450921e-06 0.0000000000000000e+00  -1.2618857240187249e-05 -6.0021873003850739e-06 0.0000000000000000e+00  -7.4732403042580812e-06 1.6291273802350195e-06 0.0000000000000000e+00  9.9414362205533030e-07 8.5157399583108136e-06 0.0000000000000000e+00  -5.5387408199598340e-06 -3.0252536637318371e-06 0.0000000000000000e+00  9.0159055802380297e-06 4.0309963174173349e-06 0.0000000000000000e+00  -1.2699941252417298e-05 7.6978088969729472e-07 0.0000000000000000e+00  -2.9468799613323488e-06 -2.9070986744207341e-08 0.0000000000000000e+00  -1.9346107905962676e-07 7.1606614282491419e-09 0.0000000000000000e+00  1.5000041907514368e+00 1.4890630466510366e-06 0.0000000000000000e+00  -1.6736967954759264e-05 -1.5670444142922424e-07 0.0000000000000000e+00  -5.6719588067372566e-06 -3.5202127068276663e-08 0.0000000000000000e+00  1.1596809060955237e-05 -1.1977878163187881e-06 0.0000000000000000e+00  4.0751173062236040e-06 1.5909332267681514e-06 0.0000000000000000e+00  2.1496830647533421e-07 2.3089094508543490e-08 0.0000000000000000e+00  -9.5483542225206568e-08 -1.2098911975181233e-08 0.0000000000000000e+00  1.1477832931377298e-06 -6.6854227299720465e-08 0.0000000000000000e+00  -5.6876429175708808e-06 -7.9681084581609453e-09 0.0000000000000000e+00  -4.0992011942836480e-06 1.5365100417794863e-08 0.0000000000000000e+00  -5.8518492008489585e-07 2.8534276994425241e-08 0.0000000000000000e+00  -3.4003817230019232e-06 -1.5107623495565610e-08 0.0000000000000000e+00  -2.9679193626917876e-06 -4.8401148105347690e-08 0.0000000000000000e+00  1.1023550459621592e+00 5.8801041039906623e-05 0.0000000000000000e+00  1.1023049568809209e+00 5.5679209061198523e-07 0.0000000000000000e+00  1.1024977972322043e+00 -3.9326599312280199e-03 0.0000000000000000e+00  1.1021672700049039e+00 -2.7399647032908182e-04 0.0000000000000000e+00  1.1019821320580034e+00 -3.7789460428846342e-05 0.0000000000000000e+00  1.1022554603989478e+00 7.6396841333008976e-05 0.0000000000000000e+00  8.5457694571794163e-01 -6.0462373296842245e-02 0.0000000000000000e+00  1.1021498007617294e+00 -2.8270498102838136e-05 0.0000000000000000e+00  -7.5652469656867515e-08 4.3558423967408040e-08 0.0000000000000000e+00  -1.2456682482958455e-06 -4.9695920598253903e-08 0.0000000000000000e+00  1.1019542442560293e+00 3.2653269157417009e-04 0.0000000000000000e+00  9.0351250975917474e-07 1.4515096448900608e-06 0.0000000000000000e+00  -1.5329281588497028e-06 -1.4197582174929178e-06 0.0000000000000000e+00  -6.7549044357818389e-06 4.6522053598659430e-09 0.0000000000000000e+00  1.1022234831763462e+00 9.7581076781322294e-05 0.0000000000000000e+00  -9.5689094725970325e-07 -6.3841472073582613e-08 0.0000000000000000e+00  -4.6497136622370290e-06 5.8871414775267874e-08 0.0000000000000000e+00  7.2892666351320685e-07 1.8482515429502087e-08 0.0000000000000000e+00  1.1029182009509897e+00 -7.5354404963664005e-04 0.0000000000000000e+00  -2.2371847134929370e-06 5.6659749547690136e-08 0.0000000000000000e+00  2.3767803475017101e-06 -3.5432226709898087e-09 0.0000000000000000e+00  2.4496632840520076e-06 -2.2648163312895745e-08 0.0000000000000000e+00  -6.8648737544824094e-06 5.8872737417267911e-08 0.0000000000000000e+00  -5.4231852491816210e-06 1.2467727693525049e-06 0.0000000000000000e+00  -5.5588260790872303e-06 -8.8484058687085494e-07 0.0000000000000000e+00  1.9247055225553392e-07 1.7621754629019003e-08 0.0000000000000000e+00  1.1020369663730811e+00 -1.1931349650134132e-04 0.0000000000000000e+00  -1.6674801234870724e-06 3.8600256461902217e-08 0.0000000000000000e+00  1.1022942994641582e+00 -8.2996150316967067e-06 0.0000000000000000e+00  1.1021647075742920e+00 4.3967916042105737e-06 0.0000000000000000e+00  1.1020555194709398e+00 9.5212403125293119e-06 0.0000000000000000e+00  1.1019349150125473e+00 -8.3148099580151135e-04 0.0000000000000000e+00  1.1022450558334353e+00 -1.0664205003439007e-04 0.0000000000000000e+00  1.8574956191336995e+00 -2.4020643543137302e-01 0.0000000000000000e+00  1.1023048893296354e+00 -1.1487834161338020e-04 0.0000000000000000e+00  1.1022331916307229e+00 -2.8542018661504524e-05 0.0000000000000000e+00  1.1020390427351923e+00 1.0552470725069592e-04 0.0000000000000000e+00  1.1153188369124409e+00 -5.2172275879975921e-03 0.0000000000000000e+00  1.1033248082359177e+00 -3.1301729104961208e-03 0.0000000000000000e+00  1.7567649914583832e+00 5.1821580191689742e-01 0.0000000000000000e+00  1.1249989976230945e+00 6.4508204311180173e-07 0.0000000000000000e+00  1.1249900570402120e+00 1.0286480448589719e-06 0.0000000000000000e+00  1.1021581067417738e+00 -1.9500746108477728e-05 0.0000000000000000e+00  1.1912762404535218e+00 6.2244326858251098e-02 0.0000000000000000e+00  1.0880931545504713e+00 -1.2201919016040411e-02 0.0000000000000000e+00  1.2174959731448440e+00 -6.2726134947612547e-02 0.0000000000000000e+00  1.1051448737785787e+00 -8.2300051855391308e-04 0.0000000000000000e+00  1.1013284633867839e+00 -1.2924096971420691e-04 0.0000000000000000e+00  1.1022179611578360e+00 1.5304587143260924e-04 0.0000000000000000e+00  1.1017997928546210e+00 1.3223343965568791e-04 0.0000000000000000e+00  1.0994550321199834e+00 -1.6858665134553102e-03 0.0000000000000000e+00  1.1003613043283278e+00 2.5443214871602302e-04 0.0000000000000000e+00  1.1024225022530667e+00 -1.1600719531785988e-04 0.0000000000000000e+00  1.1019700045011782e+00 6.3777071973665210e-05 0.0000000000000000e+00  1.1014985652027878e+00 -2.0790551612954688e-04 0.0000000000000000e+00  1.1021917661805853e+00 -2.6807095467905858e-05 0.0000000000000000e+00  1.1018221220616800e+00 -1.2526297035070591e-04 0.0000000000000000e+00  1.1021598651754347e+00 -7.6307732087008202e-05 0.0000000000000000e+00  1.1019144442105071e+00 -4.4310093720837624e-05 0.0000000000000000e+00  1.1021734273543051e+00 -1.0067445013640438e-04 0.0000000000000000e+00  1.0998765595075419e+00 1.6233259260650383e-04 0.0000000000000000e+00  1.0994867785803193e+00 4.8667998694521792e-06 0.0000000000000000e+00  1.1021611451088544e+00 2.6673156914631954e-05 0.0000000000000000e+00  1.1868949851089290e+00 2.5110194762026744e-01 0.0000000000000000e+00  1.1020219358449628e+00 -4.0342253445184105e-05 0.0000000000000000e+00  -6.6902597688045817e-01 -5.3787144991739609e-02 0.0000000000000000e+00  1.1020690136527820e+00 -1.8419594006381702e-03 0.0000000000000000e+00  1.1022575044609604e+00 -9.2473637596754603e-05 0.0000000000000000e+00  1.3920175178701921e+00 2.0678114506680426e-01 0.0000000000000000e+00  1.1021815968045641e+00 1.5329246828516273e-05 0.0000000000000000e+00  1.8817218964325138e+00 -2.3739256552611446e-02 0.0000000000000000e+00  1.1412556357274821e+00 -2.4561554055924392e-01 0.0000000000000000e+00  -5.4248514505461594e-07 2.2565370137476418e-08 0.0000000000000000e+00  1.0960565361975785e+00 -4.2832102839988450e-05 0.0000000000000000e+00  -2.8996356879515243e-06 -6.2048027791204046e-08 0.0000000000000000e+00  -7.6432615292224536e-06 3.2907316173009000e-08 0.0000000000000000e+00  1.1023776618751171e+00 1.3056059318482535e-05 0.0000000000000000e+00  3.0848625479344710e-06 -1.2099656336251565e-06 0.0000000000000000e+00  1.0994509951781759e+00 2.5079810958781023e-04 0.0000000000000000e+00  -3.6682846475912976e-06 -4.0369991396763352e-08 0.0000000000000000e+00  -2.5616558999826418e-06 -3.4511576244483516e-08 0.0000000000000000e+00  1.1005358844753554e+00 7.6693676165014407e-05 0.0000000000000000e+00  1.0979120489553011e-05 1.8865439553802002e-06 0.0000000000000000e+00  1.3799195554789436e+00 -4.3086922279802059e-01 0.0000000000000000e+00  1.5259716995704498e+00 -2.5996067747252377e-01 0.0000000000000000e+00  1.1020090223527244e+00 -3.8511741859309734e-04 0.0000000000000000e+00  1.3366708971762495e+00 -1.0433467892800570e-01 0.0000000000000000e+00  1.1063615917350917e+00 -6.7417255790979472e-02 0.0000000000000000e+00  1.3737662084809350e+00 1.2726587540864556e-01 0.0000000000000000e+00  1.0752752434810142e+00 4.1915620467920453e-02 0.0000000000000000e+00  1.1022197952979038e+00 7.0938631142503187e-05 0.0000000000000000e+00  1.0985143697505770e+00 2.3615398700800931e-05 0.0000000000000000e+00  -5.4533305048956040e-07 2.2284190176493999e-08 0.0000000000000000e+00  1.0994808736456771e+00 -1.4121799154453247e-04 0.0000000000000000e+00  1.1022578041515072e+00 -6.0410114070039167e-04 0.0000000000000000e+00  1.1022044713126584e+00 7.7034851910197996e-06 0.0000000000000000e+00  1.1019877105530520e+00 -4.1844504854871458e-05 0.0000000000000000e+00  1.0995965380554160e+00 -3.8298249682579315e-04 0.0000000000000000e+00  -3.4258680087271529e-06 -2.7943781110522330e-10 0.0000000000000000e+00  1.1021232408669459e+00 1.3053139275306705e-05 0.0000000000000000e+00  1.0991141600571503e+00 -2.2631871817011535e-04 0.0000000000000000e+00  1.6262025976908205e+00 3.1167359753982271e-02 0.0000000000000000e+00  1.1021184465515403e+00 -1.2813135615164603e-05 0.0000000000000000e+00  1.1021139634258179e+00 -1.3661389088511319e-04 0.0000000000000000e+00  -1.2171990581445984e-06 8.3681008981430043e-09 0.0000000000000000e+00  -1.4916950063901259e-05 2.7403854948410898e-08 0.0000000000000000e+00  1.1034422402196946e+00 -1.7844919253097687e-03 0.0000000000000000e+00  1.1013239766206899e+00 -2.9622555894527921e-03 0.0000000000000000e+00  1.2536464401846568e+00 -5.2598526750938651e-02 0.0000000000000000e+00  1.1023767334274512e+00 -1.3200385875717909e-04 0.0000000000000000e+00  -3.0736734823665273e-06 -4.3891403345619979e-07 0.0000000000000000e+00  6.5625078149305205e-01 2.8079625046256509e-07 0.0000000000000000e+00  1.0905917947334103e+00 -9.8404552575584412e-05 0.0000000000000000e+00  1.1468530658359113e+00 -1.4472329810463940e-02 0.0000000000000000e+00  1.1249313556084757e+00 4.2051124682193908e-03 0.0000000000000000e+00  -5.9174240536039152e-06 3.1419544195435223e-08 0.0000000000000000e+00  1.0983179008416453e+00 2.1309598215167092e-04 0.0000000000000000e+00  1.1023011089155828e+00 -2.5116570988083956e-06 0.0000000000000000e+00  -3.8104881094051894e-06 1.7581933622919041e-08 0.0000000000000000e+00  -1.1049600352441597e-05 1.4816383014588572e-09 0.0000000000000000e+00  -5.3529623979738805e-06 -3.5549672383355060e-08 0.0000000000000000e+00  1.3964393115491051e-06 4.1424575519134564e-08 0.0000000000000000e+00  -2.8281309789362141e-06 7.7336109330408306e-08 0.0000000000000000e+00  -9.7946957893746142e-07 1.4597803361068000e-09 0.0000000000000000e+00  5.1863574798339569e-07 3.4727022607215822e-08 0.0000000000000000e+00  -8.0972357620024285e-06 8.1693191607726308e-08 0.0000000000000000e+00  1.4155072303515249e-05 -8.8962922218289330e-07 0.0000000000000000e+00  -1.3720298019567802e-05 -1.6434974621416740e-07 0.0000000000000000e+00  -8.6894841375040980e-07 5.0320213364620325e-07 0.0000000000000000e+00  1.1147069405363191e-07 4.3986191911867042e-07 0.0000000000000000e+00  -4.0115730673930856e-07 1.2643143458732724e-08 0.0000000000000000e+00  -8.9684889677044300e-06 7.5434027004529222e-08 0.0000000000000000e+00  -7.5829751948578933e-06 -1.2811362400979865e-07 0.0000000000000000e+00  -1.0713549550017282e-06 -4.9263077210461030e-08 0.0000000000000000e+00  -8.2195363130025468e-06 -2.8784993568778677e-08 0.0000000000000000e+00  -2.4519102054946387e-06 1.2065694518118371e-08 0.0000000000000000e+00  -7.5462718919920076e-07 2.7721785392341022e-08 0.0000000000000000e+00  1.0868739469122057e+00 -1.6658406749803570e-04 0.0000000000000000e+00  1.0893745989722858e+00 4.2167115993534430e-04 0.0000000000000000e+00  1.0946472188885497e+00 6.3323659712054167e-05 0.0000000000000000e+00  1.0977837094303151e+00 -1.3531424214697929e-04 0.0000000000000000e+00  1.1023389373595820e+00 3.7867188866279978e-05 0.0000000000000000e+00  1.1020479866664350e+00 -3.4392313532677643e-05 0.0000000000000000e+00  1.0951627228626757e+00 -1.0556160124228020e-03 0.0000000000000000e+00  1.0842400651895236e+00 3.8954112295309435e-04 0.0000000000000000e+00  2.9590941335239734e-01 3.3114212756472400e-01 0.0000000000000000e+00  1.2952653476405611e+00 1.1250647863024855e-01 0.0000000000000000e+00  5.6962526259544155e-01 -1.1764395691258708e-01 0.0000000000000000e+00  1.1021692527894531e+00 3.1625226856883935e-05 0.0000000000000000e+00  1.1022362758383051e+00 -2.2131302289679706e-06 0.0000000000000000e+00  1.1021972555151027e+00 -2.6114759299639339e-05 0.0000000000000000e+00  1.1021617308376721e+00 -1.7103440787171034e-05 0.0000000000000000e+00  1.0879103182772047e+00 -3.6335390245503530e-04 0.0000000000000000e+00  1.0942115111736206e+00 -2.4123836894184903e-04 0.0000000000000000e+00  1.0846579730111863e+00 3.3987251662168094e-04 0.0000000000000000e+00  1.1016330533239003e+00 4.3241621804255290e-05 0.0000000000000000e+00  1.1031593104144093e+00 -1.2367873273427194e-04 0.0000000000000000e+00  1.0891232318413173e+00 -2.8190786040262730e-03 0.0000000000000000e+00  9.0480903526728862e-01 3.3228704697314766e-02 0.0000000000000000e+00  1.1022479269622927e+00 3.0173126086122603e-06 0.0000000000000000e+00  1.1020474042136259e+00 -1.4251924316704566e-05 0.0000000000000000e+00  1.1022324976281384e+00 -3.0994845986122650e-06 0.0000000000000000e+00  1.0955189168905839e+00 5.1464983263150102e-04 0.0000000000000000e+00  1.1022557656843468e+00 3.7839135598756387e-05 0.0000000000000000e+00  1.1020817655817496e+00 -1.7699437991875449e-05 0.0000000000000000e+00  1.0926293642956995e+00 -6.0219339022045567e-04 0.0000000000000000e+00  1.1022345178608901e+00 1.4235078973641717e-05 0.0000000000000000e+00  1.0897999100823446e+00 6.5757957243241499e-04 0.0000000000000000e+00  1.1062094835230181e+00 -4.3221873002264495e-03 0.0000000000000000e+00  6.5624825086275074e-01 4.7676802250463309e-08 0.0000000000000000e+00  1.0692863218320925e+00 2.9576753583873037e-03 0.0000000000000000e+00  1.1002299614369724e+00 -3.1398333016205704e-03 0.0000000000000000e+00  1.3116062577295244e+00 2.9005777185666032e-01 0.0000000000000000e+00  1.0744055633856837e+00 -3.5860922404325642e-05 0.0000000000000000e+00  1.1020934135353042e+00 -1.0648177324540657e-03 0.0000000000000000e+00  1.1020672102119400e+00 -7.9095851571386514e-05 0.0000000000000000e+00  1.1022235204704185e+00 -2.2809676039025871e-05 0.0000000000000000e+00  1.1021761867070572e+00 4.8138410705638985e-05 0.0000000000000000e+00  1.1023233523814862e+00 -6.3832302346823028e-05 0.0000000000000000e+00  1.1203788989203554e+00 4.1816631901919664e-02 0.0000000000000000e+00  1.0387563636128887e+00 -1.9543997145748129e-02 0.0000000000000000e+00  1.0600541347570656e+00 -1.1297905566052801e-02 0.0000000000000000e+00  1.1022267864063320e+00 1.2895993397896403e-06 0.0000000000000000e+00  1.1022550573179517e+00 3.4097796157118506e-05 0.0000000000000000e+00  1.1049563846513886e+00 -1.1758196752217970e-02 0.0000000000000000e+00  1.1020442614494297e+00 1.1915410449599225e-04 0.0000000000000000e+00  1.0597685846911904e+00 7.9781515991961035e-03 0.0000000000000000e+00  1.0803674546894837e+00 2.6301631754581265e-04 0.0000000000000000e+00  1.0451489868082962e+00 1.1178017561015844e-03 0.0000000000000000e+00  9.4163508575269406e-01 9.3449958334227756e-02 0.0000000000000000e+00  1.0278523903559407e+00 1.0577447365208277e-02 0.0000000000000000e+00  1.0980166882994156e+00 5.2816843401355595e-03 0.0000000000000000e+00  1.1022442083183110e+00 3.8180972983614783e-05 0.0000000000000000e+00  1.1025678826699172e+00 -4.3645068780337015e-04 0.0000000000000000e+00  1.2246525699369555e+00 1.6779854289384999e-01 0.0000000000000000e+00  1.0908020422473570e+00 -5.1216031602321422e-04 0.0000000000000000e+00  1.1009328599265440e+00 -7.9673054308284846e-05 0.0000000000000000e+00  1.1021691640625639e+00 -3.7796803502250915e-05 0.0000000000000000e+00  1.1022210968491943e+00 -5.5605850109710715e-05 0.0000000000000000e+00  1.2950193010250333e+00 5.0799480786566674e-02 0.0000000000000000e+00  1.1019704044026259e+00 -2.6035262834459998e-07 0.0000000000000000e+00  1.1020788468314102e+00 3.1234823264368243e-05 0.0000000000000000e+00  1.1022170200529555e+00 6.6975165103436648e-05 0.0000000000000000e+00  1.1021236163580930e+00 -1.5575202127071446e-04 0.0000000000000000e+00  1.0391828088247728e+00 -4.9231808646348111e-06 0.0000000000000000e+00  1.0389902809447604e+00 -3.1674463216067406e-04 0.0000000000000000e+00  1.0680422117807078e+00 -1.6851041807216955e-04 0.0000000000000000e+00  1.0826355309033626e+00 -4.5911635068817590e-05 0.0000000000000000e+00  1.0905884098403196e+00 7.7425580126572118e-05 0.0000000000000000e+00  1.1022211336709427e+00 -1.1254139872390176e-04 0.0000000000000000e+00  1.0567379944088315e+00 -4.1700242980183966e-04 0.0000000000000000e+00  1.1023169315634838e+00 3.0320778523055958e-06 0.0000000000000000e+00  1.1022724201445673e+00 7.7210701869741486e-05 0.0000000000000000e+00  1.3224086347606463e+00 -6.3144178322066188e-02 0.0000000000000000e+00  1.1022090076385742e+00 -1.3793129419297122e-05 0.0000000000000000e+00  1.1022509754478904e+00 -5.8420780623150308e-05 0.0000000000000000e+00  1.1015731578409509e+00 -1.3361011750793158e-03 0.0000000000000000e+00  1.0070567464207358e+00 -5.7458166757057359e-04 0.0000000000000000e+00  1.1020768740835010e+00 -3.7687963013046687e-05 0.0000000000000000e+00  1.1345355113256128e+00 -1.7974781479248450e-01 0.0000000000000000e+00  1.0749972881520689e+00 -1.1162424473473417e-04 0.0000000000000000e+00  7.3740494853848115e-01 -7.7229352296883047e-02 0.0000000000000000e+00  1.3254042479353376e+00 -5.2343148695553496e-02 0.0000000000000000e+00  1.0723791133677298e+00 -2.0472576601039403e-04 0.0000000000000000e+00  1.0339586118423310e+00 2.5239129590775010e-04 0.0000000000000000e+00  1.5345937111535228e+00 4.5992495184592735e-01 0.0000000000000000e+00  1.0026393837950565e+00 1.7012330125119146e-01 0.0000000000000000e+00  1.0649421877156762e+00 1.5292374801610005e-03 0.0000000000000000e+00  1.9144725746174012e+00 2.0832709554914786e-01 0.0000000000000000e+00  1.4655867025214009e+00 -5.0587475025890050e-01 0.0000000000000000e+00  9.7444930325726475e-01 -1.8477071381957755e-01 0.0000000000000000e+00  1.0635932094098548e+00 -8.3053484286480515e-04 0.0000000000000000e+00  1.0755179824314927e+00 -6.3306003626877232e-03 0.0000000000000000e+00  1.0560141319265235e+00 6.4933707108864901e-04 0.0000000000000000e+00  1.0739701088914697e+00 -2.5618683166831358e-04 0.0000000000000000e+00  1.1021242521996846e+00 -8.9747791697004388e-06 0.0000000000000000e+00  1.0415276157940385e+00 -2.5279786504984369e-02 0.0000000000000000e+00  1.4062435097154515e+00 1.1968796887662677e-06 0.0000000000000000e+00  1.1022493201680785e+00 1.6394386925560684e-04 0.0000000000000000e+00  1.0660412511500010e+00 -1.1196666202675143e-03 0.0000000000000000e+00  1.4062428391182000e+00 1.1763509061148037e-06 0.0000000000000000e+00  1.0664083030018756e+00 3.8011591158095746e-04 0.0000000000000000e+00  1.1020306069318360e+00 -2.0719340176899971e-04 0.0000000000000000e+00  1.1021405457296807e+00 4.4318876620206220e-02 0.0000000000000000e+00  1.1021191229482104e+00 1.2534533091286806e-04 0.0000000000000000e+00  7.1303928017771112e-01 9.7137729269383341e-02 0.0000000000000000e+00  1.1021708592076964e+00 6.6082268974631612e-05 0.0000000000000000e+00  1.0562293225146615e+00 -4.2322655606712563e-04 0.0000000000000000e+00  1.0497226078156208e+00 5.0958313793494057e-04 0.0000000000000000e+00  9.6960544136711979e-01 6.6389714257605035e-04 0.0000000000000000e+00  1.1022305228261451e+00 1.3437324900231188e-04 0.0000000000000000e+00  9.7126831943424663e-01 2.0464881040445127e-04 0.0000000000000000e+00  1.0380358470487796