<?xml version="1.0"?>
<VTKFile type="UnstructuredGrid"  version="0.1"  >
<UnstructuredGrid>
<Piece  NumberOfPoints="2446" NumberOfCells="4585">
<Points>
<DataArray  type="Float64"  NumberOfComponents="3"  format="ascii">0 0.41 0  0 0 0  2.2 0 0  2.2 0.41 0  0.2404508497187474 0.2293892626146237 0  0.25 0.2 0  0.2404508497187474 0.1706107373853764 0  0.2154508497187474 0.1524471741852423 0  0.1845491502812526 0.1524471741852423 0  0.1595491502812526 0.1706107373853764 0  0.15 0.2 0  0.1595491502812526 0.2293892626146237 0  0.1845491502812527 0.2475528258147577 0  0.2154508497187474 0.2475528258147577 0  1.1 0 0  1.1 0.41 0  0 0.205 0  0.55 0 0  0.55 0.41 0  0.275 0 0  0.275 0.41 0  1.65 0.41 0  1.65 0 0  0.8250000000000001 0.41 0  0.8250000000000001 0 0  1.375 0 0  1.375 0.41 0  1.925 0 0  1.925 0.41 0  1.5125 0.205 0  1.7875 0.205 0  0.6875 0.205 0  0.9625000000000001 0.205 0  1.2375 0.205 0  2.2 0.205 0  0.4687002074688797 0.2068568464730291 0  1.99375 0.2152743902439024 0  2.0625 0 0  2.0625 0.41 0  2.2 0.3075 0  0.4125 0 0  0.4125 0.41 0  1.7875 0.41 0  1.375 0.1486128048780488 0  1.5125 0 0  1.7875 0 0  1.5125 0.41 0  0.8250000000000001 0.2613871951219511 0  0.9625000000000001 0.41 0  0.9625000000000001 0 0  0.6875 0.41 0  0.6875 0 0  0.1375 0 0  0.1375 0.41 0  1.2375 0 0  1.1 0.1486128048780487 0  1.2375 0.41 0  1.65 0.1486128048780487 0  1.126715909090909 0.2793064024390244 0  1.676715909090909 0.2793064024390244 0  0.8517159090909092 0.1306935975609756 0  1.348284090909091 0.2793064024390244 0  0.34375 0.3032389320646208 0  1.894702181800738 0.1282910975492754 0  2.092797818199262 0.1282910975492754 0  1.85625 0.3075 0  0.61875 0.3075 0  0.61875 0.1025 0  0.3648540804333487 0.1240075933101478 0  0 0.3075 0  0 0.1025 0  2.099172119769978 0.25625 0  0.48125 0.09238439620688085 0  0.5781001037344399 0.2059284232365146 0  0.48125 0.3196743479159776 0  0.7265881057911006 0.3055240343720796 0  1.99375 0.08395950269330846 0  1.459960956013612 0.3075 0  1.569025960719943 0.2986889805672169 0  0.75625 0.08213100772579164 0  1.03125 0.3278689922742084 0  0.923871252904788 0.3078247185783941 0  1.959375 0.3126371951219512 0  1.749222215368287 0.1025 0  1.275777784631713 0.1025 0  2.2 0.1025 0  1.225938124459196 0.3075 0  1.550777784631713 0.1025 0  1.000777784631713 0.1025 0  1.44375 0.07430640243902442 0  1.16875 0.07430640243902437 0  1.899250267340833 0.2229966846119207 0  0.1020898364287272 0.3140258291809757 0  1.766482954545455 0.2934032012195123 0  0.3405058858996321 0.2119987970531874 0  0.7710785630958338 0.1710968191298857 0  1.046078563095834 0.2389031808701144 0  0.2 0.3400647632937836 0  1.421109702350723 0.2261157654379721 0  0.2800464974185557 0.08982544815605742 0  0.098916018031319 0.09171660955420841 0  2.13125 0 0  2.118919042110979 0.3422084711244843 0  1.30625 0.41 0  0.89375 0 0  1.597888256393107 0.2173787389261347 0  0.20625 0 0  1.829299675393195 0.07400700849299596 0  1.71875 0.41 0  1.16875 0.41 0  2.038220665644273 0.332420740103091 0  0.34375 0 0  0.417496017710808 0.2696595573092803 0  0.2 0.07687845740457822 0  0.9295982307099278 0.1343158415898188 0  0.07390688010811153 0.1697064032433452 0  0.5238366813727013 0.2578302467013575 0  0.05452951551825875 0.25625 0  0.5229630068078351 0.1548816096928243 0  1.452769549894695 0.1548122580621249 0  1.369219062229598 0.07430640243902442 0  1.30625 0 0  0.8504409521244898 0.3356935975609756 0  0.8821881244591965 0.205 0  1.720943423819132 0.1714577452753128 0  1.157188124459196 0.205 0  1.094219062229598 0.07430640243902437 0  1.03125 0 0  1.304056576180868 0.1714577452753128 0  1.67579304192913 0.07430640243902437 0  0.2751941921308361 0.3346083473122598 0  1.209670467133757 0.1362100266964769 0  1.025335513626278 0.1700681449722324 0  0.7562500000000001 0.41 0  1.58125 0 0  0.7567170593862014 0.2409196493502535 0  0.6926714215682891 0.1272249611432207 0  0.4139715849905988 0.3397932387114203 0  0.9840787304190477 0.2717749043358119 0  0.06875000000000001 0.41 0  0 0.35875 0  0.9281250000000001 0.06276726142697993 0  0.5507396469029935 0.3219409231578227 0  0.5504468037989405 0.09136885600634273 0  1.58125 0.41 0  1.631724228912893 0.3381867502687533 0  1.825608881788174 0.14499488549201 0  1.85625 0 0  1.44375 0 0  1.44375 0.41 0  1.85625 0.41 0  2.13125 0.41 0  0.7562500000000001 0 0  0.89375 0.41 0  0.4812500000000001 0 0  0.34375 0.41 0  0.4812500000000001 0.41 0  0.20625 0.41 0  0.06875000000000001 0 0  1.16875 0 0  0.61875 0 0  0.61875 0.41 0  1.03125 0.41 0  1.71875 0 0  1.99375 0 0  1.99375 0.41 0  1.340625 0.3489494290853124 0  1.134375 0.3489494290853123 0  1.700180620188976 0.3438659752031281 0  2.135782184673599 0.07126652247502523 0  1.668441847249787 0.2129203728327609 0  1.295782514339747 0.2378437748815763 0  0.8233075729931248 0.06842334294821524 0  1.409375 0.3520314716057996 0  0.403505597322782 0.182067236678212 0  0.378125 0.05794951541303489 0  0.3043468223249023 0.1518321115979534 0  2.129248544730567 0.1906135162504124 0  2.060771381434487 0.1989445750470348 0  2.013252586573865 0.1496169464686054 0  1.942766402200229 0.1734448904596831 0  1.895522487186454 0.06076163953489683 0  2.069553871656643 0.06605731020975725 0  1.274680914880868 0.3520219391081363 0  1.614713220494657 0.09473434380863296 0  0.7899021319497519 0.3149123934144827 0  0.69518737419149 0.0634051089053758 0  0.2971740475496061 0.2592172353407536 0  1.72990325744076 0.2380068107952482 0  1.356580098625191 0.2120393231351682 0  2.034370752044885 0.2668681600792073 0  1.51768709249349 0.3426260931494756 0  1.561883724969884 0.1650446847858835 0  1.197344062229598 0.2523725417393646 0  1.804085235518364 0.3468178408964637 0  1.817887819205233 0.2589243285818559 0  1.905897727272727 0.3485060975609756 0  0.6719798073392919 0.2688965171178177 0  0 0.05125 0  0.653125 0.35875 0  0.6396896119294488 0.1627615407790282 0  0.4274150154087412 0.1242548552168279 0  1.192836486056382 0.3562350748565544 0  0.8279124365364005 0.183856489168822 0  1.097485222388854 0.2083571153401724 0  1.28257088594801 0.2944411014911587 0  1.474860187679412 0.2504218616229368 0  1.406767003493824 0.2829282258560709 0  0.446875 0.04619219810344041 0  0.515625 0.04585361801037557 0  0.592043440706648 0.05125 0  1.845656689180403 0.1998310418452388 0  2.144958525570388 0.2909790873294231 0  0.6171090763650112 0.2492366900333857 0  2.2 0.15375 0  0.5145586920831158 0.3648371739579888 0  1.57794966442982 0.3540357145964566 0  0.721875 0.3633107922168974 0  0.0496154796471391 0.333125 0  0.5843750000000001 0.3662560860076676 0  0.5810878747760798 0.1474002776121195 0  1.508991196088596 0.1421783375065625 0  0.8840670607017558 0.2640994375393898 0  0.09776612425612034 0.2204896805326566 0  1.50436820029908 0.06143401634903343 0  1.223857000523521 0.0823554862453532 0  1.153316824384777 0.1289850171317837 0  2.148922302309752 0.1258841779285271 0  0.309375 0.04312325590431198 0  1.621993280276081 0.2841214267927899 0  1.550118654119087 0.2461998729100966 0  1.327182649291491 0.1216967252533594 0  1.051977450479407 0.1221382572915816 0  1.753125 0.04556020050186112 0  1.271875 0.04556020050186116 0  0.9816084133102366 0.05126138213476004 0  1.039051841454368 0.0572224914831029 0  0.9719230514536006 0.3480477870845102 0  1.94956388244759 0.1180512551534177 0  1.949997712993411 0.04965831614304109 0  1.771961817615021 0.1530278789497521 0  1.909246823951428 0.2812757146784527 0  0.2459536687882397 0.04668633953831142 0  1.948575539857022 0.2445328248721197 0  1.697271520964565 0.1233917627620729 0  0.7964897648514618 0.1211426571931604 0  1.065625 0.3689344961371042 0  1.085849084308977 0.3170853572226867 0  0.4702981435440001 0.260434880697798 0  1.577403511714593 0.05463601888079143 0  0.05622663515370135 0.05493816910862376 0  0.3267207591099919 0.3566194660323104 0  0.9003051618565143 0.3564049499960621 0  1.751571320346033 0.3651102912045228 0  0.1583785085108421 0.2994699345738728 0  0.1455283439499995 0.3542795598723423 0  2.2 0.35875 0  0.2347662494194072 0.298325008655211 0  0.1527284455616188 0.1065771775690181 0  0.1382139529076665 0.05427454456341477 0  0.8749341636311069 0.05110114999892954 0  0.643661668713109 0.05693499781019222 0  1.466879772203159 0.3611261772912453 0  1.990280163552011 0.3564754268533217 0  1.17471064520912 0.2990917256188288 0  0.5202693090594349 0.206382495511728 0  0 0.25625 0  2.2 0.25625 0  2.2 0.05125 0  0 0.15375 0  1.853978576207987 0.35875 0  0.9787513713939683 0.1487523696999336 0  0.240625 0.3722153812029779 0  1.515638456102889 0.2882700110184686 0  0.09048297387599738 0.3637717362208066 0  2.150453692751374 0.2387066338105111 0  1.323782677156475 0.04897634338873398 0  0.8074131292871642 0.3624701995505916 0  1.409375 0.03715320121951221 0  1.406484531114799 0.1087852750766809 0  1.134375 0.03715320121951218 0  1.627401732573545 0.04552157221025036 0  0.1170173172005315 0.1427610859166811 0  2.045405893604797 0.1105340662939892 0  1.255408269734577 0.1577307500159216 0  2.028125 0.03707597992059326 0  0.4743610090857199 0.1421513964721819 0  0.9354010469015898 0.250631300585664 0  0.04420832937638274 0.128125 0  0.8922386349349938 0.0992956419364831 0  0.1197849154434487 0.2663398672460083 0  1.248258025468107 0.2565907092181813 0  0.3746885856929528 0.370723531618974 0  1.203125 0.0366132337404304 0  0.5724622277005015 0.2751253816079333 0  0.3365425205162783 0.08395777655057959 0  2.072662025974815 0.2975086504196739 0  0.4581080832182547 0.3648371739579888 0  0.3874522734668214 0.2295447548840689 0  0.7827853612484443 0.04106550386289586 0  1.887722846421017 0.1760882698830035 0  1.472640588990488 0.1118278026240017 0  1.865937103925594 0.2604137786483804 0  1.463913572748262 0.2030442564990043 0  1.376426316059077 0.3186741374914345 0  0.6641993820150034 0.3141688596240831 0  0.2943117490824315 0.2130987422685822 0  0.3478153998082709 0.1666571081082676 0  0.3427990510599805 0.2575950027870776 0  0.7997118993855807 0.2216171933356366 0  
[...]
<PointData  Vectors="f_31"> 
<DataArray  type="Float64"  Name="f_31"  NumberOfComponents="3" format="ascii">2.1415392399734665e-06 5.8617067161670988e-08 0.0000000000000000e+00  -2.2826615674439276e-06 1.4597666260124906e-08 0.0000000000000000e+00  4.0818883585856548e-06 -1.3932130199777151e-08 0.0000000000000000e+00  -1.6653382419774807e-05 2.8488947727043243e-09 0.0000000000000000e+00  -4.7673121187434453e-06 4.7710941959313315e-07 0.0000000000000000e+00  -7.5841383530459681e-06 1.7452157182557522e-05 0.0000000000000000e+00  -7.3267614780952913e-06 8.8154740505766298e-06 0.0000000000000000e+00  -7.0041739436527785e-06 -2.4974211957792770e-06 0.0000000000000000e+00  -9.7990848160763548e-06 -4.1304824603394213e-06 0.0000000000000000e+00  -6.0655390612656811e-06 9.9057743472431606e-07 0.0000000000000000e+00  1.1029043551606439e-06 8.6058590958738970e-06 0.0000000000000000e+00  -4.6454559911750986e-06 -3.3404227856223331e-06 0.0000000000000000e+00  9.5391469327656554e-06 3.4140321949085415e-06 0.0000000000000000e+00  -1.2959712019355065e-05 -6.6138796963531962e-07 0.0000000000000000e+00  -2.6708717835538545e-06 2.2117467123162136e-10 0.0000000000000000e+00  -2.4413767307015518e-07 -1.8128176931361314e-09 0.0000000000000000e+00  1.5000042545305428e+00 1.4902005154585817e-06 0.0000000000000000e+00  -1.7941087838352114e-05 5.7059719069254627e-08 0.0000000000000000e+00  -7.1875531722530523e-06 -2.6046894481817256e-07 0.0000000000000000e+00  5.5257192441439103e-06 2.3064000506696783e-07 0.0000000000000000e+00  -1.5535459703228019e-06 1.0724186292216226e-07 0.0000000000000000e+00  2.6929317771407020e-07 -1.7399625859441159e-10 0.0000000000000000e+00  -6.0928077495492903e-09 -2.7195591521641736e-08 0.0000000000000000e+00  1.4398378906940979e-06 -4.7310735827524089e-08 0.0000000000000000e+00  -5.3698546949575854e-06 1.5081614542911543e-08 0.0000000000000000e+00  -3.9931003189788597e-06 1.8997148603096156e-08 0.0000000000000000e+00  -9.6745423332006490e-07 -8.0529588266026607e-09 0.0000000000000000e+00  -3.1740008889454932e-06 3.1429771985597658e-08 0.0000000000000000e+00  -2.5881662695390945e-06 -2.2092983459968175e-08 0.0000000000000000e+00  1.1130965574972318e+00 5.8157829235595011e-05 0.0000000000000000e+00  1.1130759720900429e+00 -4.1525906079681826e-06 0.0000000000000000e+00  1.1171828552676168e+00 -6.5376508683941160e-03 0.0000000000000000e+00  1.1129448505635642e+00 -4.2360075555214027e-04 0.0000000000000000e+00  1.1127025141855524e+00 -4.6398306487606641e-05 0.0000000000000000e+00  1.1129769804905105e+00 2.5665262533417676e-05 0.0000000000000000e+00  5.8459664265718758e-01 -7.0838535928984245e-02 0.0000000000000000e+00  1.1128821014663335e+00 -1.8949970144661245e-05 0.0000000000000000e+00  7.9820284457157188e-08 1.2277313909963705e-08 0.0000000000000000e+00  -9.1891588847003514e-07 1.4827306380562461e-08 0.0000000000000000e+00  1.1126401804795210e+00 3.5134604187574001e-05 0.0000000000000000e+00  1.1535586313502378e-05 9.4460225194118832e-07 0.0000000000000000e+00  8.6155887998036300e-06 -4.9623132841400317e-07 0.0000000000000000e+00  -6.4679109801046153e-06 -4.4197222389292180e-08 0.0000000000000000e+00  1.1129372113981284e+00 7.4563218230204887e-05 0.0000000000000000e+00  -5.6030945523184695e-07 -3.1127887307882857e-08 0.0000000000000000e+00  -4.4324173191598139e-06 3.1548641376551469e-08 0.0000000000000000e+00  8.4619416594971489e-07 1.4482352197482742e-09 0.0000000000000000e+00  1.1144453594635593e+00 -7.1335171868785281e-04 0.0000000000000000e+00  -2.0216277916945653e-06 1.9263326996346029e-08 0.0000000000000000e+00  2.3585582530599426e-06 -8.4060160994300886e-09 0.0000000000000000e+00  1.3529188335343467e-06 -5.0390858564937047e-08 0.0000000000000000e+00  -7.3525186826390213e-06 1.8793602728289287e-07 0.0000000000000000e+00  -4.9920622082053794e-06 8.9690038126894932e-07 0.0000000000000000e+00  -5.0906442774618579e-06 -8.4707754306778028e-07 0.0000000000000000e+00  2.6231829247622975e-07 2.1085758948085672e-08 0.0000000000000000e+00  1.1127983747331076e+00 -1.0145726657219000e-04 0.0000000000000000e+00  -1.8367857616146294e-06 -8.2731575260476756e-09 0.0000000000000000e+00  1.1130347301779995e+00 2.0753105194749805e-05 0.0000000000000000e+00  1.1129086925675569e+00 -3.1151718517069180e-05 0.0000000000000000e+00  1.1127511213007919e+00 8.4746638129739328e-06 0.0000000000000000e+00  1.1125519571844138e+00 -1.5514581078569507e-03 0.0000000000000000e+00  1.1129410016137675e+00 -5.3236207011711568e-05 0.0000000000000000e+00  1.9268877669699433e+00 -1.9762107242106422e-01 0.0000000000000000e+00  1.1130330005681857e+00 -8.6507122908866831e-05 0.0000000000000000e+00  1.1129436462468456e+00 -5.2334569959004557e-05 0.0000000000000000e+00  1.1124397167119400e+00 -1.1925335240800438e-05 0.0000000000000000e+00  1.1409210627704776e+00 4.2885963182918239e-03 0.0000000000000000e+00  1.1211541904521927e+00 -1.6895216584041858e-02 0.0000000000000000e+00  1.8217486395778455e+00 3.9117755699778195e-01 0.0000000000000000e+00  1.1249990336641249e+00 5.7847450643038687e-07 0.0000000000000000e+00  1.1249900797855059e+00 1.0734376849609179e-06 0.0000000000000000e+00  1.1128913257776303e+00 -3.2546271583183551e-05 0.0000000000000000e+00  1.2268522676565692e+00 7.5460484098840042e-02 0.0000000000000000e+00  1.0951118528310972e+00 -2.3026753776246859e-02 0.0000000000000000e+00  1.2429602778912778e+00 -5.6963162139945442e-02 0.0000000000000000e+00  1.1178612262814214e+00 1.4409389058609426e-03 0.0000000000000000e+00  1.1110657693325077e+00 -1.3705067206635629e-04 0.0000000000000000e+00  1.1129521599731806e+00 -1.6428213793730499e-06 0.0000000000000000e+00  1.1125393027074788e+00 2.1028325110104557e-04 0.0000000000000000e+00  1.1072295521961819e+00 -4.0486807753125223e-03 0.0000000000000000e+00  1.1098476168325708e+00 2.6594634915532252e-04 0.0000000000000000e+00  1.1130363030046497e+00 -7.4433694306876813e-05 0.0000000000000000e+00  1.1125576839693918e+00 1.6745628106269167e-04 0.0000000000000000e+00  1.1121188927988201e+00 -2.4816138399862630e-04 0.0000000000000000e+00  1.1127965769192367e+00 -6.8726987966414563e-05 0.0000000000000000e+00  1.1124449666280216e+00 -1.6388625015933890e-04 0.0000000000000000e+00  1.1127246416065979e+00 4.9157088359566223e-05 0.0000000000000000e+00  1.1127099167877159e+00 -7.1692134124641912e-05 0.0000000000000000e+00  1.1126203801174694e+00 -1.9236813873997437e-04 0.0000000000000000e+00  1.1073355134786722e+00 2.6272213043181710e-04 0.0000000000000000e+00  1.1069593655057774e+00 -1.0171382078025953e-04 0.0000000000000000e+00  1.1129382053847323e+00 1.3743804360559852e-05 0.0000000000000000e+00  1.1889441815585629e+00 2.5510131125363500e-01 0.0000000000000000e+00  1.1127032935813299e+00 1.5824246221088060e-05 0.0000000000000000e+00  -7.2434595582052785e-01 -4.5396238361676035e-02 0.0000000000000000e+00  1.1137379019104419e+00 -3.4967463139686087e-03 0.0000000000000000e+00  1.1130251830536262e+00 -1.3532855630065310e-04 0.0000000000000000e+00  1.3964951537697365e+00 2.1391897725256073e-01 0.0000000000000000e+00  1.1128604697917259e+00 -3.7376931688085027e-06 0.0000000000000000e+00  1.8893935875455223e+00 -6.4881733077356327e-02 0.0000000000000000e+00  1.1392883739620265e+00 -2.4496497645260076e-01 0.0000000000000000e+00  -5.7978634230039912e-07 3.3052479240655912e-08 0.0000000000000000e+00  1.1009969965210098e+00 3.0481304619174197e-04 0.0000000000000000e+00  -2.1982598593752237e-06 3.0327415635297508e-09 0.0000000000000000e+00  -7.2293926178066688e-06 -8.7231889031005579e-10 0.0000000000000000e+00  1.1131114536173135e+00 2.8056658153468713e-05 0.0000000000000000e+00  1.5685722349833591e-06 -3.3534173522290125e-07 0.0000000000000000e+00  1.1067215415544438e+00 6.7434894448090713e-05 0.0000000000000000e+00  -3.2170665727969372e-06 1.8601608112327528e-08 0.0000000000000000e+00  -2.1735966847445666e-06 2.7356450029421340e-09 0.0000000000000000e+00  1.1089734695670324e+00 -8.5800148754694013e-05 0.0000000000000000e+00  5.5362584998946220e-06 3.0676228171234671e-07 0.0000000000000000e+00  1.6007940444996271e+00 -4.9060834408260628e-01 0.0000000000000000e+00  1.5212353672271095e+00 -2.7092612470386845e-01 0.0000000000000000e+00  1.1127058894690718e+00 -6.7431631958093485e-04 0.0000000000000000e+00  1.3357009208923172e+00 -1.0050066166280879e-01 0.0000000000000000e+00  1.2107019427361962e+00 -7.9220671312851057e-02 0.0000000000000000e+00  1.3741844214678989e+00 1.3048983102334058e-01 0.0000000000000000e+00  1.1342964536720963e+00 5.7820684312085466e-02 0.0000000000000000e+00  1.1129377758303989e+00 1.0525426119270138e-04 0.0000000000000000e+00  1.1062858860527465e+00 -1.3716447791977261e-04 0.0000000000000000e+00  -5.3972280708056928e-07 -1.1093523469112396e-09 0.0000000000000000e+00  1.1071244935878775e+00 4.3321485181386225e-04 0.0000000000000000e+00  1.1132489208390814e+00 -9.2180062715240191e-04 0.0000000000000000e+00  1.1129717515204836e+00 3.7089416165788100e-05 0.0000000000000000e+00  1.1127436843297167e+00 -3.7815995153365606e-05 0.0000000000000000e+00  1.1075067604679039e+00 -9.0561471248155586e-05 0.0000000000000000e+00  -3.3857807700735591e-06 1.7382274001386022e-08 0.0000000000000000e+00  1.1128342966360176e+00 3.5652210385090501e-08 0.0000000000000000e+00  1.1066660168104132e+00 1.3098958622238430e-04 0.0000000000000000e+00  1.6379980767834053e+00 4.0962853685337156e-02 0.0000000000000000e+00  1.1128409135839774e+00 -3.8082217108892054e-05 0.0000000000000000e+00  1.1128277670476019e+00 -2.2208125218676225e-04 0.0000000000000000e+00  -1.2174097440793206e-06 -2.4059309837890643e-08 0.0000000000000000e+00  -1.4224155402749991e-05 -5.5239632453838849e-10 0.0000000000000000e+00  1.1162339226585341e+00 -2.0913652772917104e-03 0.0000000000000000e+00  1.1134551179306555e+00 -8.2052202790918842e-03 0.0000000000000000e+00  1.3528513019385640e+00 -1.5853461778690675e-01 0.0000000000000000e+00  1.1132263635675168e+00 -1.8736339524957373e-04 0.0000000000000000e+00  -2.8201408915820147e-06 -2.4163687035287018e-07 0.0000000000000000e+00  6.5625073622541963e-01 2.4921769999285160e-07 0.0000000000000000e+00  1.0922746271996244e+00 -4.0672188039385881e-04 0.0000000000000000e+00  1.1762425805970629e+00 9.5063881283361483e-03 0.0000000000000000e+00  1.1550831631468073e+00 -2.0447563752483692e-02 0.0000000000000000e+00  -5.5137822929939874e-06 2.7734282603655875e-09 0.0000000000000000e+00  1.1052153957739268e+00 3.3099099426315404e-04 0.0000000000000000e+00  1.1130272807554291e+00 -1.6602129025186102e-05 0.0000000000000000e+00  -3.7762230797062687e-06 8.0204053818491959e-09 0.0000000000000000e+00  -1.0907217112557271e-05 1.7980819706986054e-08 0.0000000000000000e+00  -4.8201360166054744e-06 -3.7048361437953615e-08 0.0000000000000000e+00  1.6032080724039430e-06 6.3879071660530393e-08 0.0000000000000000e+00  -2.8757209544344667e-06 -3.8023945150149510e-08 0.0000000000000000e+00  -1.0256493591732148e-06 4.1821556052631047e-08 0.0000000000000000e+00  5.6448419849697447e-07 -4.1650200187278134e-09 0.0000000000000000e+00  -1.1151706716449164e-06 1.6438205715042294e-06 0.0000000000000000e+00  1.0559005309406958e-05 -6.2649779574221622e-08 0.0000000000000000e+00  -7.0811293404413473e-06 -1.3902409536180160e-06 0.0000000000000000e+00  -2.7189683546415054e-06 -6.1601071572247900e-07 0.0000000000000000e+00  6.3431761432848166e-07 1.1618817602808521e-07 0.0000000000000000e+00  -3.8896331510845835e-07 -2.9833456760134268e-09 0.0000000000000000e+00  -1.2602038764929877e-05 1.8059436244927877e-07 0.0000000000000000e+00  -1.0119278857833969e-05 -3.4218919826870476e-07 0.0000000000000000e+00  -9.1136354822478326e-07 -5.8824557300904689e-09 0.0000000000000000e+00  -7.8781854164932839e-06 -2.8170901557750344e-08 0.0000000000000000e+00  -2.2349428564803211e-06 -1.8299815439095596e-08 0.0000000000000000e+00  -8.5042487658209626e-07 1.1461838461329977e-09 0.0000000000000000e+00  1.0878496409841385e+00 3.2024117527431288e-04 0.0000000000000000e+00  1.0898967275576210e+00 -7.3437301881457029e-05 0.0000000000000000e+00  1.0986711540819518e+00 -1.0900115540863611e-04 0.0000000000000000e+00  1.1042765750370438e+00 -2.4095112818413889e-04 0.0000000000000000e+00  1.1130952993679020e+00 5.0047948796331775e-05 0.0000000000000000e+00  1.1127600794832624e+00 -4.2651044299222902e-05 0.0000000000000000e+00  1.0995347126114652e+00 -1.5863890098098399e-03 0.0000000000000000e+00  1.0818040977432481e+00 -3.8571451708218322e-04 0.0000000000000000e+00  -6.6149878511189641e-02 3.1295929315167770e-01 0.0000000000000000e+00  1.4174953177381981e+00 1.8605463127266625e-01 0.0000000000000000e+00  4.8626174835394093e-01 -1.7646239747193532e-01 0.0000000000000000e+00  1.1129066705948709e+00 -5.4526386135710869e-06 0.0000000000000000e+00  1.1129868596188770e+00 -2.9310038711689255e-05 0.0000000000000000e+00  1.1129978808194561e+00 -5.5282985432089306e-05 0.0000000000000000e+00  1.1129578520700125e+00 -3.3257558661807072e-05 0.0000000000000000e+00  1.0882309192419952e+00 5.7128189282882011e-05 0.0000000000000000e+00  1.0982356766100241e+00 -2.0423105117373967e-04 0.0000000000000000e+00  1.0824298732107818e+00 -1.6766918384867542e-04 0.0000000000000000e+00  1.1120273222736610e+00 -1.0565839264053959e-04 0.0000000000000000e+00  1.1143531746001722e+00 7.1038285203684360e-04 0.0000000000000000e+00  1.0863315233416790e+00 -8.8206600420971601e-03 0.0000000000000000e+00  8.3570737636421355e-01 3.8342443694024522e-02 0.0000000000000000e+00  1.1130088877939670e+00 2.1366015846906380e-05 0.0000000000000000e+00  1.1127364583401653e+00 -2.5851292281433045e-05 0.0000000000000000e+00  1.1129540500821058e+00 -2.4254543243354891e-05 0.0000000000000000e+00  1.1005570663800646e+00 4.6589694510655561e-04 0.0000000000000000e+00  1.1130471167343412e+00 3.6736633864990283e-05 0.0000000000000000e+00  1.1128264833638972e+00 1.1222118381558208e-05 0.0000000000000000e+00  1.0945219179490646e+00 -7.8978371639422634e-05 0.0000000000000000e+00  1.1129379874752749e+00 8.0811185258597941e-06 0.0000000000000000e+00  1.0909667061182422e+00 4.0985759372336536e-04 0.0000000000000000e+00  1.1236461747482873e+00 -3.3281194552396429e-03 0.0000000000000000e+00  6.5624823515969199e-01 5.5251915522053173e-08 0.0000000000000000e+00  1.0508174401745936e+00 1.3183104261132370e-02 0.0000000000000000e+00  1.1154765238456386e+00 -8.2685023875515035e-03 0.0000000000000000e+00  1.5659377211200534e+00 5.1444663825358883e-01 0.0000000000000000e+00  1.0673894523662086e+00 3.7779673080145523e-04 0.0000000000000000e+00  1.1133119992431206e+00 -1.8322920801389798e-03 0.0000000000000000e+00  1.1127980486477529e+00 -1.0652895210444789e-04 0.0000000000000000e+00  1.1129206849489859e+00 -6.7021518362285842e-05 0.0000000000000000e+00  1.1129351862100054e+00 1.9719018673831109e-05 0.0000000000000000e+00  1.1129779750907418e+00 -1.1603547361965190e-04 0.0000000000000000e+00  1.0236996013332222e+00 6.4080877296372296e-02 0.0000000000000000e+00  9.7369557963185971e-01 -2.5263433235367876e-02 0.0000000000000000e+00  1.0257760867404373e+00 -3.5411421005557782e-02 0.0000000000000000e+00  1.1130027021963536e+00 -1.8459868557146236e-05 0.0000000000000000e+00  1.1129182916524425e+00 9.9515223542128695e-07 0.0000000000000000e+00  1.1276771696449837e+00 -1.6474395551547470e-02 0.0000000000000000e+00  1.1127828893604685e+00 5.5405405271263335e-05 0.0000000000000000e+00  9.9868812102300886e-01 1.1539461778507574e-02 0.0000000000000000e+00  1.0760490685444444e+00 3.1350166942133216e-04 0.0000000000000000e+00  1.0261583273351114e+00 3.3337307375977693e-03 0.0000000000000000e+00  9.4222095215297141e-01 9.4926368544054895e-02 0.0000000000000000e+00  9.7978217578430427e-01 2.7267686919130389e-02 0.0000000000000000e+00  1.1222044995678060e+00 4.3331874518041848e-03 0.0000000000000000e+00  1.1130442472416944e+00 9.1115475918245267e-05 0.0000000000000000e+00  1.1136307851285940e+00 -4.5878339983866954e-04 0.0000000000000000e+00  1.2249266223084720e+00 1.7432162579404070e-01 0.0000000000000000e+00  1.0916222987580204e+00 -3.8669545217683364e-05 0.0000000000000000e+00  1.1103434465745936e+00 -9.4856510265502555e-05 0.0000000000000000e+00  1.1129186441497509e+00 -7.8481246786152870e-05 0.0000000000000000e+00  1.1129585655156644e+00 -1.1205164914138308e-04 0.0000000000000000e+00  1.3585814326331327e+00 5.4982978192987822e-02 0.0000000000000000e+00  1.1127107253812076e+00 6.4673751334691913e-05 0.0000000000000000e+00  1.1128538462187241e+00 4.2629545550476289e-05 0.0000000000000000e+00  1.1129274693500719e+00 5.6930244792216539e-05 0.0000000000000000e+00  1.1128250049999835e+00 -1.6622312578261418e-04 0.0000000000000000e+00  1.0215510615937393e+00 -3.4009416881653994e-04 0.0000000000000000e+00  1.0213289783122279e+00 -4.5573620310176272e-04 0.0000000000000000e+00  1.0578202399909271e+00 -2.8391501183890408e-04 0.0000000000000000e+00  1.0791686240866378e+00 6.2633830654891911e-05 0.0000000000000000e+00  1.0918336508826452e+00 -4.9395203244554737e-06 0.0000000000000000e+00  1.1129792960689351e+00 -1.0514561962928077e-04 0.0000000000000000e+00  1.0451096056831599e+00 -4.7836912454920702e-04 0.0000000000000000e+00  1.1130691404412920e+00 -1.4527849611520978e-05 0.0000000000000000e+00  1.1130266640970106e+00 4.8313461055585891e-05 0.0000000000000000e+00  1.3310444640126851e+00 -7.6076890351287313e-02 0.0000000000000000e+00  1.1129626939327841e+00 9.9682113491598699e-06 0.0000000000000000e+00  1.1129698706052842e+00 3.6149289331313533e-06 0.0000000000000000e+00  1.1119914925591783e+00 -2.8748283146650048e-03 0.0000000000000000e+00  9.8231654064519758e-01 -3.7067312475036049e-05 0.0000000000000000e+00  1.1123930227659713e+00 -5.4578312299789545e-07 0.0000000000000000e+00  1.3406460943541578e+00 -3.3684617413980189e-01 0.0000000000000000e+00  1.0693586466962226e+00 -2.2238407604653661e-04 0.0000000000000000e+00  7.3722677575875961e-01 -7.6635078276768423e-02 0.0000000000000000e+00  1.3850618184353818e+00 -7.3076449865827620e-02 0.0000000000000000e+00  1.0654492383819669e+00 7.9627217510409344e-05 0.0000000000000000e+00  1.0158385305015860e+00 1.0979726643071905e-04 0.0000000000000000e+00  1.5380266598815786e+00 4.6636335091556091e-01 0.0000000000000000e+00  1.0051504625069381e+00 1.7548797922793888e-01 0.0000000000000000e+00  1.0556611554386306e+00 2.0258788499303293e-04 0.0000000000000000e+00  1.9186314980623362e+00 2.1912736322163096e-01 0.0000000000000000e+00  1.4584911979295070e+00 -5.0702209241667295e-01 0.0000000000000000e+00  9.7233059232592167e-01 -1.8815429374483750e-01 0.0000000000000000e+00  1.0535875542588882e+00 -7.5562004709313563e-04 0.0000000000000000e+00  1.0618873896460725e+00 -1.8781262979096276e-02 0.0000000000000000e+00  1.0430519476627296e+00 5.3534295387941606e-04 0.0000000000000000e+00  1.0665408333946604e+00 6.9312069884340776e-05 0.0000000000000000e+00  1.1129067545454958e+00 1.8686273916369211e-05 0.0000000000000000e+00  9.7453957445091377e-01 -4.9665897707803469e-02 0.0000000000000000e+00  1.4062435182632727e+00 1.1299841120547710e-06 0.0000000000000000e+00  1.1130269356086393e+00 1.1150655902919963e-04 0.0000000000000000e+00  1.0563404303657657e+00 -9.0825897222323833e-04 0.0000000000000000e+00  1.4062429174480000e+00 1.2271866996293252e-06 0.0000000000000000e+00  1.0565110435042537e+00 -4.1593502715808669e-04 0.0000000000000000e+00  1.1127302105274415e+00 -3.6622838475332037e-04 0.0000000000000000e+00  1.1232686469303601e+00 4.5527580270551302e-02 0.0000000000000000e+00  1.1129679287898337e+00 1.1158134827744479e-04 0.0000000000000000e+00  7.1546819660031036e-01 9.8801919210940628e-02 0.0000000000000000e+00  1.1128985018956550e+00 2.0190135174581091e-05 0.0000000000000000e+00  1.0438050013116356e+00 -1.4778178520432790e-04 0.0000000000000000e+00  1.0344861129055742e+00 1.1445242175651120e-03 0.0000000000000000e+00  9.3984247111290387e-01 3.7890571268906035e-04 0.0000000000000000e+00  1.1128672395809829e+00 8.3123424951629790e-05 0.0000000000000000e+00  9.4087909959730165e-01 -2.3639666860389639e-04 0.0000000000000000e+00  1.0199125730236