<?xml version="1.0"?>
<VTKFile type="UnstructuredGrid"  version="0.1"  >
<UnstructuredGrid>
<Piece  NumberOfPoints="1981" NumberOfCells="3668">
<Points>
<DataArray  type="Float64"  NumberOfComponents="3"  format="ascii">-2 0.5 0  -2 0 0  -0.5 0 0  -0.4968561049466213 -0.05598223805165387 0  -0.4874639560909119 -0.1112604669781569 0  -0.4719416651541838 -0.1651395309775835 0  -0.4504844339512096 -0.216941869558779 0  -0.4233620996141421 -0.2660160382576682 0  -0.3909157412340148 -0.3117449009293669 0  -0.3535533905932738 -0.3535533905932737 0  -0.3117449009293669 -0.3909157412340148 0  -0.2660160382576683 -0.4233620996141421 0  -0.2169418695587791 -0.4504844339512095 0  -0.1651395309775836 -0.4719416651541837 0  -0.1112604669781573 -0.4874639560909118 0  -0.05598223805165402 -0.4968561049466213 0  -9.184850993605148e-17 -0.5 0  2 -0.5 0  2 0 0  0.5 0 0  0.4968561049466213 0.05598223805165393 0  0.4874639560909118 0.1112604669781572 0  0.4719416651541838 0.1651395309775835 0  0.4504844339512096 0.2169418695587791 0  0.4233620996141421 0.2660160382576683 0  0.3909157412340149 0.3117449009293667 0  0.3535533905932738 0.3535533905932737 0  0.3117449009293668 0.3909157412340149 0  0.2660160382576683 0.4233620996141421 0  0.2169418695587791 0.4504844339512096 0  0.1651395309775837 0.4719416651541837 0  0.1112604669781572 0.4874639560909118 0  0.05598223805165384 0.4968561049466213 0  3.061616997868383e-17 0.5 0  0.1398708344106534 0.05418624992807294 0  0.15 0 0  0.1398708344106534 -0.05418624992807295 0  0.1108513375830988 -0.1010543465469837 0  0.06686075336648065 -0.1342744937032594 0  0.01384025391949536 -0.1493601264442552 0  -0.04104944851081246 -0.1442738464759228 0  -0.09039519545688858 -0.1197025840920358 0  -0.1275325703594421 -0.07896482443160337 0  -0.1474459649525853 -0.02756242767248552 0  -0.1474459649525853 0.02756242767248555 0  -0.1275325703594421 0.07896482443160341 0  -0.09039519545688844 0.1197025840920359 0  -0.04104944851081243 0.1442738464759228 0  0.0138402539194953 0.1493601264442552 0  0.06686075336648074 0.1342744937032593 0  0.1108513375830989 0.1010543465469836 0  -1 0.5 0  1 -0.5 0  -1.25 0 0  -0.5 0.5 0  1.25 0 0  0.4999999999999999 -0.5 0  -1.5 0.5 0  1.5 -0.5 0  -0.875 0 0  0.875 0 0  -1.625 0 0  1.625 0 0  0.6875 -0.2500000000000001 0  -0.6875 0.25 0  -2 0.25 0  1.75 -0.5 0  0.2499999999999999 -0.5 0  -0.3583969912126916 0.25 0  0.3749999999999999 -0.25 0  -1.0625 0.21875 0  1.0625 -0.21875 0  -1.75 0.5 0  -1.25 0.5 0  -1.375 0.25 0  1.4375 -0.21875 0  2 -0.25 0  1.25 -0.5 0  1.7375 -0.2375 0  -1.7375 0.2375 0  0.75 -0.5 0  -0.75 0.5 0  -0.25 0.5 0  -0.1570377317087672 0.3153742794659282 0  0.1249999999999999 -0.3338777090152827 0  -0.8826650943396226 0.3263561320754717 0  0.8826650943396227 -0.3263561320754717 0  1.25 -0.1897321428571428 0  1.4375 0 0  -1.4375 0 0  1.0625 0 0  -1.0625 0 0  -0.6875 0 0  0.6875 0 0  1.8125 0 0  -1.8125 0 0  0.3263011380546194 -0.06940056902730968 0  -1.554017857142857 0.1790178571428572 0  0.08847100915780901 0.3109433440851622 0  -0.2412983234264066 -0.2156373655531345 0  -1.625 0.3744047619047619 0  1.625 -0.3744047619047619 0  0.2743272717766799 0.1698562554772697 0  -0.3279338175957848 0.06764246763930631 0  -1.863068181818182 0.3630681818181818 0  2 -0.375 0  1.875 -0.5 0  -0.05442366733490933 -0.3203147637646457 0  1.321986607142857 -0.3448660714285714 0  1.125 -0.5 0  -1.209821428571429 0.3236607142857143 0  -0.5229484956063458 0.1781011282952406 0  0.9067445847815293 -0.1625224987586892 0  -0.8335714777578845 0.1642411083184135 0  -1.237063437253354 0.1627182813733228 0  -0.4947697009489606 0.3378596801347012 0  0.53125 -0.171875 0  0.5156249999999999 -0.3359375 0  -2 0.125 0  1.873225308641975 -0.1497685185185185 0  0.2341337966231563 -0.1911191776024666 0  -0.625 0.5 0  1.587453076345555 -0.2288757784711196 0  1.8125 -0.3654761904761905 0  -0.3326862624810256 -0.08869875963335262 0  -0.375 0.5 0  1.174048204529175 -0.319244854540162 0  -1.067618031042359 0.3674567846760797 0  -0.96875 0.109375 0  1.481463366596639 -0.3565498074229692 0  1.023503306098383 -0.3576535124663073 0  -0.2265388519390893 0.1866542405407749 0  0.625 -0.5 0  -1.852445652173913 0.1432065217391304 0  -1.375 0.5 0  -1.479101577239454 0.3541992113802732 0  0.2708871299591885 -0.3541935649795943 0  1.520204106978579 -0.109375 0  0.78125 -0.1026731411563172 0  -0.3125 0.3785994323952442 0  0.3749999999999999 -0.5 0  1.141568346088435 -0.109375 0  1.358431653911565 -0.109375 0  1.668712727161379 -0.1246887081867154 0  -1.673050595238095 0.1226339285714286 0  -1.34375 0 0  -1.431523109243698 0.1313182773109244 0  -0.7546231943577876 0.3660317014105531 0  -0.6233296454587935 0.3645528204344609 0  0.7546231943577878 -0.3660317014105531 0  0.6537002726710706 -0.125 0  -0.6441338591766993 0.125 0  1.375 -0.5 0  -2 0.375 0  -1.875 0.5 0  1.625 -0.5 0  -1.625 0.5 0  0.875 -0.5 0  -0.875 0.5 0  0.1249999999999999 -0.5 0  -0.125 0.5 0  2 -0.125 0  -1.125 0.5 0  -1.354082022940739 0.375 0  -0.03500388138134332 0.2732363193989585 0  0.3955099577726473 -0.3752808566622692 0  0.3596026196703111 0.0631070919012526 0  -0.0625 0.394061918116807 0  0.6342080192637126 -0.3582597885274255 0  -1.123666900137815 0.109375 0  -1.744588744588745 0.3803841991341991 0  0.2210084381421171 0.2925777566973838 0  0.8072251313743133 -0.2315819627814412 0  -0.1814335426834733 -0.3282792760620681 0  -0.9356634513979559 0.2218154628239019 0  0.4183753556420685 -0.1414382112841371 0  -0.1238894550978499 -0.2292394949250368 0  0.96875 0 0  1.013652292192466 -0.1102204462032291 0  -0.4393328341626322 0.09834605222123384 0  1.882206434331873 -0.2686982850037661 0  0.1426699461850768 0.2146575767791519 0  -1.886304127069339 0.251758104550396 0  0.2495743011762567 0.06264742837969955 0  -0.78125 0 0  0.04042933102838756 -0.2590839715717854 0  -1.53125 0 0  -0.5823692714154002 0.2663576540687616 0  -0.2594008044921133 0.2871583817002197 0  -0.9375 0.4157678007976423 0  0.9696186653311423 -0.2675997292662616 0  -0.7942971416386473 0.2646257048857303 0  0.06249999999999992 -0.4169388545076413 0  0.1874999999999999 -0.4169388545076413 0  -1.562839467699977 0.2864000626355251 0  -0.1875 0.4157529178973974 0  -0.1223698320396133 0.2179970721626365 0  1.770639498024741 -0.1399156735731578 0  0.9367002721196375 -0.4157324987180338 0  -1.90625 0 0  -0.2298618769854927 -0.08904896555277285 0  0.1397131066802196 -0.232031643549068 0  -0.4375 0.420861596936145 0  -0.3483554784186823 -0.1925292675214375 0  0.59375 0 0  -1.327632151430252 0.1057660692693074 0  -0.9830051201906395 0.3115204496273563 0  1.90625 0 0  1.236354269160391 -0.3993990952861421 0  -1.1875 0.4214935578661845 0  0.5625 -0.4247705455161483 0  -0.7349377422908023 0.1635199768201956 0  -1.583328550170068 0.08705835459183674 0  -1.640104497493491 0.2259991665335075 0  -1.467109316827997 0.2210671404637805 0  0.5896070530325394 -0.2690578560650788 0  0.3266472067106532 -0.167734762534917 0  -0.59375 0 0  -0.546875 0.08448914438556519 0  1.71875 0 0  1.156078290691277 -0.2031315651260504 0  1.337704613095238 -0.2433035714285714 0  1.236312294597949 -0.09486607142857142 0  0.1642123379155914 0.3701207892454864 0  0.2345507206108115 -0.04384512844718241 0  -0.4048861533022036 -0.02273791864794379 0  0.03798857341016919 0.3979165301900267 0  -0.4006523628802168 0.334179001454817 0  -0.1135990210174155 -0.393340785880617 0  1.906775738056482 -0.3598876272511091 0  1.720393990929705 -0.4044642857142857 0  -1.71875 0 0  1.15625 0 0  0.78125 0 0  1.53125 0 0  -0.96875 0 0  1.34375 0 0  -1.15625 0 0  1.142828909845958 -0.4078056758504979 0  0.40697192225457 -0.01923608979840619 0  -1.767708120728825 0.08966855818957545 0  -0.6882384924227143 0.4308047125515967 0  -0.3636785153797087 0.1553944795036722 0  -0.2291274285977749 0.08616080495998404 0  -0.281012338688557 -0.01202669255906096 0  0.3108677056378212 0.2586754570559801 0  -1.151751953043632 0.196872287087452 0  -0.5625 0.4330368698813529 0  0.6875 -0.4328910527173583 0  1.405021000845949 -0.3057191080886871 0  0.546875 -0.08025568181818182 0  0.3713523302229579 0.1599284134935842 0  -1.12196127795563 0.2911449911382941 0  -1.276991293863022 0.2522534749828799 0  1.255195006158927 -0.2798057638555942 0  -0.8388532729558951 0.4114132763440825 0  0.8388532729558953 -0.4114132763440825 0  -0.4557763550657601 0.2486174768248819 0  0.2049883534781638 -0.2934473685517857 0  0.3226059585583683 -0.4273378498573185 0  -1.426982449282418 0.4270508114904024 0  1.397702183984896 -0.4056170514003312 0  0.05467855045156804 0.2285245978493705 0  -0.272823163096586 -0.3046204408381326 0  -0.02656096412551515 -0.4126877256833236 0  -1.807235369718798 0.2933328120993839 0  0.1906985117418444 0.1399478964461678 0  -1.688085622354259 0.3115694793217502 0  1.659329587961023 -0.2879395206246994 0  -1.5625 0.437202380952381 0  1.546313524296827 -0.4210926184041992 0  -1.813279560389256 0.4363923695021056 0  -1.926524548924358 0.4265245489243581 0  -0.1751061200004134 -0.1578066000831913 0  0.2891187728554643 -0.268298186700636 0  0.4721679687499999 -0.2490234375 0  0.7276683718449491 -0.1720688736051095 0  0.4744973194747868 -0.4152356216385488 0  0.9322020604693165 -0.07914563824612769 0  -1.275602471792197 0.4154857864535745 0  -0.828125 0.07552171441918698 0  1.3125 -0.5 0  -1.931646474339171 0.178059096704675 0  -0.7167268019830385 0.08016211756451477 0  1.060414578698922 -0.4368616551407768 0  -1.6875 0.5 0  1.9375 -0.5 0  1.739833210773432 -0.3220974693894793 0  -2 0.3125 0  -1.207440692409131 0.07848980221212992 0  -0.04055821595704934 -0.2377097412335854 0  0.1922531441870086 -0.1190381071624572 0  1.509237778147088 -0.2717758217431455 0  0.8901922386429052 -0.2437760747352658 0  -1.498530569603453 0.07867879855510211 0  0.9849923856958628 -0.1870513965806273 0  1.515605916195201 -0.1906351698786736 0  1.439317880445072 -0.08458133750179306 0  1.932491348856277 -0.2050969650933771 0  1.828075655121533 -0.08087981225769847 0  1
[...]
<PointData  Scalars="f_45"> 
<DataArray  type="Float64"  Name="f_45"  format="ascii">1.3275241276763577e+06  9.4609464106902457e+05  7.5206970058553375e+05  7.4735566344094463e+05  7.4158347467493545e+05  7.3496698971893359e+05  7.2598377993440931e+05  7.1472489566189784e+05  7.0155958867210301e+05  6.8726120660413569e+05  6.7220364397770399e+05  6.5705478098496352e+05  6.4186363405695604e+05  6.2665860077409272e+05  6.1142321324598824e+05  5.9623785846102401e+05  5.8081031221346685e+05  4.1359547228646432e-02  -4.4982329074910954e-02  4.7434228350570000e+05  4.8021087897658284e+05  4.8700189114592056e+05  4.9520336352915497e+05  5.0502550148520723e+05  5.1727208509723272e+05  5.3167617149059463e+05  5.4717990277342231e+05  5.6356160714271944e+05  5.8030970389448002e+05  5.9668815328873659e+05  6.1321726354768709e+05  6.2972271043028845e+05  6.4638751100501418e+05  6.6345745730946527e+05  5.8237612092403893e+05  5.7454487974062888e+05  5.7317824881191342e+05  5.7820913299468416e+05  5.8878129189625301e+05  6.0334383578923729e+05  6.1959179748587729e+05  6.3578778240451205e+05  6.4982693692989484e+05  6.5994929902603780e+05  6.6490573806746549e+05  6.6415520577493880e+05  6.5742519752187107e+05  6.4512649661933794e+05  6.2907618035502697e+05  6.1181190138224373e+05  5.9537262879353249e+05  1.0056119772812526e+06  2.9272718335435732e+05  8.7218879442471161e+05  8.2622405608589994e+05  2.4045807320862892e+05  4.3841940466392791e+05  1.1910640092268945e+06  1.4533067335636544e+05  8.1297792665325955e+05  3.6290195536675636e+05  9.0888055328492867e+05  1.2086274289302781e+05  4.0063949689585489e+05  8.3712239822163049e+05  1.1008503321515957e+06  7.2967384529177332e+04  5.1043776708251005e+05  7.4670272588179039e+05  4.9191980904474860e+05  9.2438233443736890e+05  2.8908482562678779e+05  1.2583916866123523e+06  1.1016214491406870e+06  1.0120777891416599e+06  1.7336909166618378e+05  -1.0326463096601834e-01  2.1877200091170549e+05  8.0674887626334428e+04  1.0713043631636989e+06  3.6590854685418057e+05  9.1436162114525668e+05  7.4299085203470325e+05  6.9499935684726806e+05  5.5742069977415039e+05  9.1126906243540498e+05  3.3754148125759774e+05  2.3241782558197016e+05  1.8084009738360409e+05  8.9260703099025926e+05  3.0071933274290181e+05  8.4601740907700604e+05  7.8370093125546339e+05  4.1864462812613364e+05  6.0399534790595288e+04  9.2510139903408440e+05  5.1939137831342907e+05  1.0065663076936966e+06  6.2148591389846581e+05  6.6855718964781251e+05  1.1419908585630339e+06  1.1201850199831485e+05  5.5409144854098652e+05  7.1735218581321870e+05  1.1793409902033075e+06  7.3378593120228208e-02  3.6531217856368159e+04  6.0864478833549307e+05  2.0389138575716678e+05  2.5577530310942733e+05  1.0061793100036648e+06  7.8122739779319032e+05  3.4063102055811713e+05  8.5205115070388746e+05  9.4082323371680884e+05  7.9886623107191862e+05  4.5210389497075928e+05  4.4507955951954803e+05  1.0157268000867247e+06  3.9660666144569863e+04  5.3666915619771625e+05  8.7008586101665429e+05  1.2694396663162510e+05  5.6194067909200094e+04  7.0390360723265319e+05  7.8366854166284483e+05  2.4983971859963020e+05  9.8173256138450606e+05  8.6511549606561172e+05  1.5544429781286448e+05  2.9342236886102671e+05  7.0213634013982955e+05  4.0219655759587133e+05  1.0206432153007936e+06  1.1477490850664990e+06  1.0946641581643661e+06  5.1445282357441250e+05  1.5113588883624005e+05  3.8326048575683223e+05  7.4891989121345489e+05  4.7459543787138019e+05  2.6999587315461534e+05  2.0186851463409993e+05  1.0413511251685771e+05  9.8871650131456635e+05  8.8278670434461080e+05  9.6041623732462910e+05  8.8332985775792948e+05  8.4264354282130906e+05  3.7307383768382168e+05  4.1945455427452084e+05  8.0061934584904031e+05  1.8184156450330923e+05  1.1991439536013915e+06  1.2958987654489572e+06  1.0902689996715510e+05  1.2263599587696264e+06  3.2950924475652026e+05  9.5904303242298833e+05  5.4592651329558855e+05  7.0301520768683369e+05  2.6242017408812657e-02  1.0552016274868376e+06  1.0725224862204029e+06  6.5470462899227929e+05  4.7716508554134279e+05  5.2027681013647659e+05  6.7391889073851588e+05  4.0894628769452020e+05  8.9653801770813088e+05  1.1713985959052495e+06  5.8084226708218269e+05  3.6625590084556560e+05  6.4267483275002358e+05  8.9376726237785560e+05  4.8728997062360955e+05  6.3528495765610994e+05  3.3193846779776458e+05  3.1045396444948972e+05  7.4931617568837083e+05  3.5993346020956655e+04  5.9680251690857357e+05  1.0978730771370458e+06  5.5205575450317853e+05  7.9773248158534570e+05  5.8687674423692876e+05  9.0101667663374997e+05  8.1193575068814633e+05  7.2239990753678535e+05  9.5579527365971263e+05  3.1481891674078041e+05  8.6916730789839791e+05  5.6909128847461462e+05  5.3385947072889784e+05  1.0727710069515335e+06  7.1441829506917554e+05  6.7531719719496847e+05  7.1888275018887638e+04  3.1614545722123043e+05  9.3389534729036130e+05  6.7651899413274368e+05  5.6065394256162620e+05  7.9361579375386308e+05  6.9958560030460160e+05  4.4588064227215928e+05  9.3099834987930232e+05  9.3603098980738723e+05  3.0148829209553751e+04  2.2733237883968512e+05  1.0431642386688434e+06  4.2537156540995516e+05  8.2920864947013080e+05  9.5643161242638482e+05  1.0490916589453598e+06  1.0155179804200202e+06  4.2812162614533922e+05  5.1186412658408663e+05  7.6926351911486301e+05  7.7249167160201655e+05  9.0712985513785563e+04  2.6092234151337284e+05  2.0315122834105659e+05  2.4079470845733199e+05  6.0454327396972291e+05  5.4758832652193960e+05  7.2811506849112886e+05  6.4398615772283811e+05  7.7010077165288699e+05  6.1910272110180149e+05  2.7987343594530372e+04  8.3081233497895344e+04  9.1631263932391291e+05  2.7033372239799541e+05  3.9181375062693265e+05  1.5089587122109078e+05  8.2942587550968979e+05  2.1068828902135842e+05  8.6045714752200514e+05  2.5498653202485864e+05  4.9997563657725794e+05  9.7806784718017594e+05  8.7720257975065755e+05  7.3660756753940298e+05  6.9270355965951586e+05  6.9717674166899105e+05  5.5108391335562849e+05  9.3707894754705892e+05  8.3621697601874382e+05  3.8843118902349635e+05  1.8025407438261973e+05  4.5415809392632713e+05  5.2460776137139730e+05  9.6783282120631076e+05  9.9063114605178812e+05  2.2691173335870303e+05  9.2187229453683598e+05  3.4536726256163878e+05  7.7401933663760824e+05  5.3758804736285051e+05  4.9456629537931958e+05  1.1231175548290145e+06  1.7879739139544379e+05  6.2407402676663816e+05  6.6950015527949121e+05  5.9402945575131185e+05  1.1194777213848485e+06  5.7589450178202987e+05  1.1130748249335391e+06  1.0361243172143277e+05  1.1678395156232603e+06  1.3414898793049195e+05  1.2275880592254107e+06  1.2413376765569942e+06  6.5556381243899919e+05  5.1532573790137639e+05  4.6382493056641088e+05  3.9417898874809867e+05  4.5156766000310605e+05  3.3832376137178269e+05  1.0692599549450101e+06  8.2635481707050279e+05  2.0029040654868519e+05  1.0487015955635693e+06  8.0614243234908604e+05  2.7815912000600458e+05  1.2427986457512642e+06  1.8313327937094480e+04  7.8606106028049311e+04  1.1491062469386188e+06  8.9918149601998599e+05  6.1141568886530295e+05  5.5387943234098027e+05  1.4968454493364555e+05  3.4042506877183268e+05  9.4136971749427659e+05  3.1487883197857643e+05  1.5016037708953503e+05  1.7735839727627911e+05  2.0890406154699926e+04  5.4518828188377469e+04  5.6967655321571212e+04  5.7952618079242413e+05  7.2109794795554236e+05  4.2206995257350209e+05  1.0650075381682483e+06  6.8520457500193664e+05  2.3463371794680261e+04  9.7675344607731199e+05  9.8769384354060236e+05  2.0077874633050867e+05  2.7114770706647378e+05  9.6514189880555973e+05  8.9129038969648723e+05  1.3338069013355620e+05  8.0266611141062097e+05  1.0313039247753264e+06  3.6313323127247300e+05  5.3350110353924078e+05  4.7833918950661016e+05  9.1832094246991142e+05  5.8194664079373804e+04  6.7984653919864516e+05  1.3425958967925608e+05  7.1409960335132293e+05  7.6109142634712951e+05  1.0209817692203348e+06  4.9567803636864468e+05  1.0388416817972883e+05  2.6916187973760499e+05  1.2782491868567672e+05  8.6330078866770069e+04  9.8486352168903849e+05  9.7180783836577472e+05  4.0539526732541875e+04  6.2659944578246912e+04  4.6737630066820240e+05  8.7843119768539863e+05  7.2435056340617035e+05  1.1186817401901737e+06  1.0483720737692309e+06  7.2414398404477292e+05  6.9981577827505663e+05  1.1499833313142785e+06  1.0030508771638845e+06  8.6542312745103869e+05  1.5576746047826056e+05  8.3953328280144231e+05  6.5356021594909974e+05  1.0152644592888301e+06  3.6119118397949246e+05  3.1545602090630302e+05  2.9252497527102154e+05  7.3378593120228208e-02  8.5618599081471295e+05  -4.4228152859773995e-02  2.2141960099276871e+05  5.3238705009264429e+05  2.3724336090836886e+05  9.5140225704081275e+05  1.1914651799790075e+06  7.3767162527811935e+05  9.7075584778099635e+05  6.7983458283652202e+05  5.7526259481493582e+05  3.6401000265200867e+05  4.0116398524322256e+05  8.9157598835243343e+05  4.3492245179302449e+05  5.8355160370163247e+05  2.0087869701623760e+04  4.9930483900219569e+05  7.6302125812680228e+05  5.3988030251893657e+05  7.7156720407702820e+05  7.4803193797276984e+05  1.1462355955773566e+06  2.1113056505747081e+05  5.1435899641853588e+05  6.8986531951564073e+05  9.1013440097444982e+04  1.0089523596985509e+05  1.8249503254078794e+05  2.8314095508478984e+05  2.7991593810763088e+05  7.8299868259678024e+05  2.5094875974122254e+05  5.6943932718663360e+05  8.9815232698646619e+05  3.6350394875361596e+05  3.9295089175806125e+05  8.9990109491668991e+05  8.6157654046162602e+05  6.0125983523491211e+05  3.8084261229979456e+05  6.4166269892246556e+05  8.1925801923726778e+05  1.1322556624798135e+05  9.9565076557608519e+05  9.4870523416792939e+05  9.8868497424322250e+05  9.7815291683316219e+05  8.6291538327097020e+05  8.3482983220157179e+05  8.1828469641595427e+05  9.0326848423646553e+05  4.3656297209110949e+05  4.6801079667136172e+05  1.1033413018370187e+06  6.2399623418687715e+05  6.3726018894858367e+05  6.7489350679757225e+05  5.6522075233861757e+05  8.3014995593476039e+05  7.9115595513868704e+05  1.0872206551133434e+06  1.9586118559481262e+05  5.8719038744123385e+05  6.5000463017074380e+05  6.2523622922906978e+05  6.5529770888733899e+05  6.3682326170293277e+05  9.1801036191521131e+05  6.9513730389069056e+05  6.8313974138646398e+05  1.0843594594228724e+06  1.0374283731578704e+06  9.4753717546018903e+04  5.0659245635375986e+05  7.4238826863922563e+05  9.5929329344471369e+05  8.5582851529434801e+05  1.6897665124267205e+04  8.1183477876400552e+05  2.9718687737353623e+05  9.3639536250179762e+05  8.5357246543786966e+05  8.7076657167811040e+05  9.1791613536991773e+05  2.4674308351312499e+05  4.0729868782496644e+05  4.2030243328299111e+05  4.9255036100010836e+05  1.0303465185473699e+06  7.9484226543414360e-02  2.7427247955558798e+05  1.0559676947949193e+06  1.2579128149099555e+06  1.3134363742037723e+06  1.2708894526193776e+05  1.2091367362399406e+06  1.1701264151768121e+06  8.9200964212667756e+05  1.0786551152024970e+06  8.0477167595377238e+05  3.1120735945980344e+05  7.2293706440633093e+05  5.2821658187838516e+05  5.5030850613215019e+05  9.8168591806017992e+05  5.6349536816689477e+05  8.4823521640061599e+05  3.8411640859224094e+05  1.2766706996501985e+06  2.6242017408812657e-02  5.4796524599913042e+04  1.6356447564057019e+05  3.4770893171834009e+05  4.5654630184798531e+05  1.1248709228187564e+06  1.6588125650575198e+05  8.6994625079077450e+04  5.3893755540903925e+05  1.0651181997200900e+06  7.1183392578920815e+05  2.5536538242736613e+05  2.6027338596995594e+05  6.6279604865507060e+05  6.8080772487269680e+05  4.9988863490866288e+05  1.8624761775043240e+04  2.2278994116265399e+05  9.1418685001893947e+05  4.0248032579738297e+05  4.3085368957692284e+04  4.2725484873590409e+05  3.1613406298360776e+05  3.0204780570676585e+05  1.1134169922256877e+06  1.9314451585783972e+05  4.8113732391583896e+05  4.1735246835217701e+05  1.1530935584583741e+06  1.2162169959836027e+06  1.1805300826088241e+06  4.1029020353257580e+05  7.3267228634095704e+05  4.4566011302708933e+05  3.2633252484430367e+05  3.2209352995414328e+05  2.9860281499545171e+05  1.0390913101486838e+06  6.2580984397273930e+05  7.8845455138750852e+05  5.2324698547821323e+05  9.6008284964609914e+05  5.9824308669010468e+05  4.6960613043783093e+05  5.5893304188934457e+05  7.5169926006249466e+05  8.5049577451119234e+05  9.0162074740253505e+05  7.5752513815827970e+05  6.1734701482252264e+05  3.8917775493202287e+04  9.5602539127015718e+05  2.9173075871436979e+05  1.0351262275465120e+06  5.4130568927540828e+05  6.3495948242348689e+05  7.6590221221160318e+05  1.6170678530969695e+05  2.2691680329512144e+05  6.2125324791829812e+05  1.0142121623195228e+06  8.8205067108771659e+05  1.0893591963293138e+06  1.1351624141526818e+06  1.0583723555172200e+06  7.0380982787578541e+04  1.2450814792787693e+06  4.6609668285251153e+05  4.3747776254010404e+05  6.0507350223794079e+05  1.0367618152775783e+06  5.7212274156482553e+05  5.9898528852265899e+05  6.9741679094418092e+05  1.0446487462666336e+06  6.5730907499786757e+05  1.6416773324614073e+05  9.3884574702901160e+05  1.5093266254899969e+04  1.1744298833841471e+05  3.9006252504818280e+04  1.2214553475567744e+05  5.1712601210676564e+05  2.3015968667079788e+05  8.1119491932245519e+05  3.8843098837090289e+05  5.5296725647949555e+05  7.0062260061563610e+05  8.4517812449515937e+05  6.0880520934262790e+05  5.8860207939667196e+05  3.2655934307069500e+05  4.9321276401729556e+05  5.5836000839481957e+05  5.6829470339422545e+05  9.5413075475399243e+05  5.6660617863260396e+05  1.6699061505710101e+05  6.8367876278415835e+05  8.4509722555759945e+05  9.2263745281721069e+05  1.1933658881386544e+06  6.8884712960230664e+05  9.3160589325504738e+05  3.8794571545848122e+05  7.1642014647346875e+05  7.3353052533256437e+05  8.8887341007789271e+05  8.5051462390743394e+05  7.5501533968818141e+05  2.1387705508627667e+05  5.4488583735894703e+05  5.1972555155761266e+05  3.5684850163640187e+05  9.0511004318034393e+05  9.3829220715660800e+05  6.6983249977581261e+05  5.0891264791950729e+05  8.1980484037991485e+05  1.1065464821757835e+06  7.1102457250556827e+05  6.8073231619383104e+05  7.9112975356392958e+05  7.3518618376510881e+05  3.5268954976307246e+05  5.3459941475569864e+05  7.0613436794792616e+05  7.0465579837101814e+05  3.0260102602737420e+05  3.2689545464833966e+05  9.3139851989695593e+05  9.8053300802361954e+05  9.4697961319896800e+05  3.8059816479268990e+05  5.9932949013261485e+05  1.4533969271302589e+04  4.0986368968688016e+05  3.2613258048967348e+05  3.2273913996496529e+05  9.6584250786573545e+05  3.0456967226729484e+05  3.7733821461733500e+05  5.4666152214824175e+05  5.5925196107089659e+05  5.7493852391348395e+05  5.2196259721091151e+05  4.9694966874326242e+05  6.3740033133660629e+05  6.6790577571235434e+05  7.3524240651615045e+05  5.5989922370883774e+04  5.8332404123233457e+05  5.7491951912453899e+05  5.5357879651761975e+05  6.7071594962114282e+05  6.6094878505524760e+05  6.8965102463209082e+05  3.5034265475378348e+05  2.2013165050581883e+05  2.0988978265571644e+05  1.8599152569035473e+05  6.4069016583069123e+05  1.0227944303598379e+06  2.4853098829937261e+05  1.6927413026806136e+05  7.9069132400232542e+05  4.5634828571694874e+05  9.2064644818546588e+05  2.7090515970758180e+05  3.5447361247695383e+05  6.7949807080208207e+05  2.1304958297472593e+05  6.5536244870410569e+05  7.8023361329657352e+05  7.6347450247487670e+05  6.3500177090634149e+05  2.4338863398195809e+05  9.3140225355379691e+05  9.5856768107643514e+05  8.7466991874570143e+04  5.9396175481341081e+05  7.1254639071259834e+05  5.3567295145415049e+05  7.2321904163229663e+05  8.9715272635305498e+05  8.6573408565379897e+04  8.2314735747237992e+05  8.0962555497119308e+05  7.8840717188551009e+05  7.8849584974823019e+05  7.1653688550468461e+04  5.1006927690292941e+05  6.7961703267779062e+05  7.0022060152653523e+05  4.3232841797961754e+05  7.6486991198793694e+05  1.0219951845454260e+06  1.0717954570318812e+06  9.5339202486807865e+05  5.3014464873109234e+05  5.2264944237268798e+05  1.8694788756586384e+05  1.7097075884800934e+05  6.9053060454972001e+04  1.2339744268952621e+05  7.2764503967617033e+05  1.0497100955487669e+06  3.0460715404658468e+05  3.9840834720660641e+04  8.2106100852548168e+05  9.5266101964962913e+05  8.1400106792162149e+05  1.1447614512763391e+06  4.8102456866849546e+05  5.0314411747035390e+05  2.6343441697852605e+05  1.0791499145871846e+06  6.8644693472793745e+05  4.3217376149745047e+05  1.0085886751168815e+06  9.6528777967872331e+05  9.9109716610897344e+05  8.0379619589075458e+05  7.2653831221921241e+05  3.3084774098106904e+05  1.0580395446421551e+05  4.3190302214285801e+05  4.1315153851546219e+05  7.4015524865974532e+05  7.1726660333912971e+05  9.1439352328086004e+05  8.2496132560002815e+05  3.5269286667661450e+05  5.2065827143359673e+05  6.5636620851594221e+05  7.7634665147303382e+05  4.7747558887445775e+05  7.0890180095110752e+05  9.1236401766101934e+05  1.8411394761567266e+05  1.1907507642662828e+06  1.9513154323657198e+05  9.1732473278878303e+05  4.5229527158481313e+05  7.7090778660708107e+05  5.2605287913576327e+05  9.9013607961308118e+05  9.8711775643744995e+05  1.0163332150745717e+06  9.3174387452706927e+05  6.0703913671618339e+05  5.3814901138263044e+05  8.7851708427296695e+05  9.2944868967712403e+05  9.6069998765855713e+05  6.6688060432176548e+05  5.9606905909209920e+05  5.9246174235155806e+05  1.0145391585898214e+06  7.0941059766665578e+05  2.4551098710896456e+05  7.9556871275385632e+05  7.3892186867124448e+05  9.0225201733518753e+05  3.4246293624399224e+05  3.3696744859547145e+05  1.1245383458973875e+06  9.8406806597783137e+05  6.0952379807802057e+05  7.1048302005685947e+05  5.5850559174068819e+05  5.3357715556075191e+05  9.3878754338975670e+05  5.0562308570482198e+05  1.0063428550014888e+06  3.0183950970332859e+04  1.1728163130017426e+06  6.2069322054352122e+05  4.8907656230482814e+05  5.1051271196076419e+05  4.5615944868321397e+05  2.7508184250315139e+05  2.6527459222978074e+05  2.4555949677523621e+05  7.2432912920378207e+05  5.4490300840087410e+05  6.6886277866323479e+05  4.1492654201491020e+05  9.9088399939760493e+04  7.8892874711606232e+05  2.9171237855197563e+04  4.1824442568656537e+04  6.7194025829462940e+05  6.8164599462065997e+05  6.5925847127352702e+05  6.1903237987893331e+05  6.8415695928534213e+05  2.8547307741314004e+05  4.0523787853419961e+05  1.1904371244303975e+06  2.2556570561347296e+05  8.3781257985251979e+05  1.3588397472263701e+05  8.8768935106304532e+05  8.6641158347841760e+05  8.0519777903740166e+05  4.5985823766478623e+05  1.9579433087654438e+05  7.5545577796821366e+04  4.5259706066579223e+04  8.7777379180830519e+05  7.7725617148921359e+05  3.7779506116418366e+05  3.4752149426988966e+05  7.6066668311091559e+05  9.0482302961770713e+05  8.7384664202516899e+05  8.4763238280874596e+05  6.5006765380107472e+05  9.7992379875665926e+05  9.4606644989385875e+05  9.8527689288490661e+05  1.0162165006710751e+06  1.0157791154279772e+06  9.3590745996422588e+05  1.0418080609849073e+06  9.6777361159490980e+05  1.1180007973869109e+05  1.1390470254234139e+05  9.5395287071345898e+04  1.5172847912659623e+04  4.5665232492434996e+05  4.4851460694750719e+05  4.6766017447380465e+05  8.8144673781899235e+05  8.9529010050605994e+05  8.7621696553795610e+05  7.7736856833955040e+05  4.5434500141003367e+05  6.9868836698182614e+05  8.3442818721654930e+05  1.1287163189133475e+05  2.5704581582421335e+05  1.6597150515171399e+05  1.0966819272256799e+06  6.8491237154582472e+04  3.6894066009729850e+05  2.5586142949341095e+05  5.0917753139427421e+05  3.7714796808900486e+05  3.9756941793356143e+05  4.5953223801105167e+04  3.7619624176294904e+05  8.5331432869459759e+05  1.0233987988891283e+06  1.2659967579820486e+05  1.4118804549474723e+05  1.3727340196812549e+05  7.1371197036094475e+05  5.8761064291149261e+05  3.0842391664094973e+05  6.1219656323165738e+05  9.4357960711919982e+05  1.3541673519169676e+05  6.3152875214546244e+05  6.4760563429719850e+05  2.35705631750935