<?xml version="1.0"?>
<VTKFile type="UnstructuredGrid"  version="0.1"  >
<UnstructuredGrid>
<Piece  NumberOfPoints="1981" NumberOfCells="3668">
<Points>
<DataArray  type="Float64"  NumberOfComponents="3"  format="ascii">-2 0.5 0  -2 0 0  -0.5 0 0  -0.4968561049466213 -0.05598223805165387 0  -0.4874639560909119 -0.1112604669781569 0  -0.4719416651541838 -0.1651395309775835 0  -0.4504844339512096 -0.216941869558779 0  -0.4233620996141421 -0.2660160382576682 0  -0.3909157412340148 -0.3117449009293669 0  -0.3535533905932738 -0.3535533905932737 0  -0.3117449009293669 -0.3909157412340148 0  -0.2660160382576683 -0.4233620996141421 0  -0.2169418695587791 -0.4504844339512095 0  -0.1651395309775836 -0.4719416651541837 0  -0.1112604669781573 -0.4874639560909118 0  -0.05598223805165402 -0.4968561049466213 0  -9.184850993605148e-17 -0.5 0  2 -0.5 0  2 0 0  0.5 0 0  0.4968561049466213 0.05598223805165393 0  0.4874639560909118 0.1112604669781572 0  0.4719416651541838 0.1651395309775835 0  0.4504844339512096 0.2169418695587791 0  0.4233620996141421 0.2660160382576683 0  0.3909157412340149 0.3117449009293667 0  0.3535533905932738 0.3535533905932737 0  0.3117449009293668 0.3909157412340149 0  0.2660160382576683 0.4233620996141421 0  0.2169418695587791 0.4504844339512096 0  0.1651395309775837 0.4719416651541837 0  0.1112604669781572 0.4874639560909118 0  0.05598223805165384 0.4968561049466213 0  3.061616997868383e-17 0.5 0  0.1398708344106534 0.05418624992807294 0  0.15 0 0  0.1398708344106534 -0.05418624992807295 0  0.1108513375830988 -0.1010543465469837 0  0.06686075336648065 -0.1342744937032594 0  0.01384025391949536 -0.1493601264442552 0  -0.04104944851081246 -0.1442738464759228 0  -0.09039519545688858 -0.1197025840920358 0  -0.1275325703594421 -0.07896482443160337 0  -0.1474459649525853 -0.02756242767248552 0  -0.1474459649525853 0.02756242767248555 0  -0.1275325703594421 0.07896482443160341 0  -0.09039519545688844 0.1197025840920359 0  -0.04104944851081243 0.1442738464759228 0  0.0138402539194953 0.1493601264442552 0  0.06686075336648074 0.1342744937032593 0  0.1108513375830989 0.1010543465469836 0  -1 0.5 0  1 -0.5 0  -1.25 0 0  -0.5 0.5 0  1.25 0 0  0.4999999999999999 -0.5 0  -1.5 0.5 0  1.5 -0.5 0  -0.875 0 0  0.875 0 0  -1.625 0 0  1.625 0 0  0.6875 -0.2500000000000001 0  -0.6875 0.25 0  -2 0.25 0  1.75 -0.5 0  0.2499999999999999 -0.5 0  -0.3583969912126916 0.25 0  0.3749999999999999 -0.25 0  -1.0625 0.21875 0  1.0625 -0.21875 0  -1.75 0.5 0  -1.25 0.5 0  -1.375 0.25 0  1.4375 -0.21875 0  2 -0.25 0  1.25 -0.5 0  1.7375 -0.2375 0  -1.7375 0.2375 0  0.75 -0.5 0  -0.75 0.5 0  -0.25 0.5 0  -0.1570377317087672 0.3153742794659282 0  0.1249999999999999 -0.3338777090152827 0  -0.8826650943396226 0.3263561320754717 0  0.8826650943396227 -0.3263561320754717 0  1.25 -0.1897321428571428 0  1.4375 0 0  -1.4375 0 0  1.0625 0 0  -1.0625 0 0  -0.6875 0 0  0.6875 0 0  1.8125 0 0  -1.8125 0 0  0.3263011380546194 -0.06940056902730968 0  -1.554017857142857 0.1790178571428572 0  0.08847100915780901 0.3109433440851622 0  -0.2412983234264066 -0.2156373655531345 0  -1.625 0.3744047619047619 0  1.625 -0.3744047619047619 0  0.2743272717766799 0.1698562554772697 0  -0.3279338175957848 0.06764246763930631 0  -1.863068181818182 0.3630681818181818 0  2 -0.375 0  1.875 -0.5 0  -0.05442366733490933 -0.3203147637646457 0  1.321986607142857 -0.3448660714285714 0  1.125 -0.5 0  -1.209821428571429 0.3236607142857143 0  -0.5229484956063458 0.1781011282952406 0  0.9067445847815293 -0.1625224987586892 0  -0.8335714777578845 0.1642411083184135 0  -1.237063437253354 0.1627182813733228 0  -0.4947697009489606 0.3378596801347012 0  0.53125 -0.171875 0  0.5156249999999999 -0.3359375 0  -2 0.125 0  1.873225308641975 -0.1497685185185185 0  0.2341337966231563 -0.1911191776024666 0  -0.625 0.5 0  1.587453076345555 -0.2288757784711196 0  1.8125 -0.3654761904761905 0  -0.3326862624810256 -0.08869875963335262 0  -0.375 0.5 0  1.174048204529175 -0.319244854540162 0  -1.067618031042359 0.3674567846760797 0  -0.96875 0.109375 0  1.481463366596639 -0.3565498074229692 0  1.023503306098383 -0.3576535124663073 0  -0.2265388519390893 0.1866542405407749 0  0.625 -0.5 0  -1.852445652173913 0.1432065217391304 0  -1.375 0.5 0  -1.479101577239454 0.3541992113802732 0  0.2708871299591885 -0.3541935649795943 0  1.520204106978579 -0.109375 0  0.78125 -0.1026731411563172 0  -0.3125 0.3785994323952442 0  0.3749999999999999 -0.5 0  1.141568346088435 -0.109375 0  1.358431653911565 -0.109375 0  1.668712727161379 -0.1246887081867154 0  -1.673050595238095 0.1226339285714286 0  -1.34375 0 0  -1.431523109243698 0.1313182773109244 0  -0.7546231943577876 0.3660317014105531 0  -0.6233296454587935 0.3645528204344609 0  0.7546231943577878 -0.3660317014105531 0  0.6537002726710706 -0.125 0  -0.6441338591766993 0.125 0  1.375 -0.5 0  -2 0.375 0  -1.875 0.5 0  1.625 -0.5 0  -1.625 0.5 0  0.875 -0.5 0  -0.875 0.5 0  0.1249999999999999 -0.5 0  -0.125 0.5 0  2 -0.125 0  -1.125 0.5 0  -1.354082022940739 0.375 0  -0.03500388138134332 0.2732363193989585 0  0.3955099577726473 -0.3752808566622692 0  0.3596026196703111 0.0631070919012526 0  -0.0625 0.394061918116807 0  0.6342080192637126 -0.3582597885274255 0  -1.123666900137815 0.109375 0  -1.744588744588745 0.3803841991341991 0  0.2210084381421171 0.2925777566973838 0  0.8072251313743133 -0.2315819627814412 0  -0.1814335426834733 -0.3282792760620681 0  -0.9356634513979559 0.2218154628239019 0  0.4183753556420685 -0.1414382112841371 0  -0.1238894550978499 -0.2292394949250368 0  0.96875 0 0  1.013652292192466 -0.1102204462032291 0  -0.4393328341626322 0.09834605222123384 0  1.882206434331873 -0.2686982850037661 0  0.1426699461850768 0.2146575767791519 0  -1.886304127069339 0.251758104550396 0  0.2495743011762567 0.06264742837969955 0  -0.78125 0 0  0.04042933102838756 -0.2590839715717854 0  -1.53125 0 0  -0.5823692714154002 0.2663576540687616 0  -0.2594008044921133 0.2871583817002197 0  -0.9375 0.4157678007976423 0  0.9696186653311423 -0.2675997292662616 0  -0.7942971416386473 0.2646257048857303 0  0.06249999999999992 -0.4169388545076413 0  0.1874999999999999 -0.4169388545076413 0  -1.562839467699977 0.2864000626355251 0  -0.1875 0.4157529178973974 0  -0.1223698320396133 0.2179970721626365 0  1.770639498024741 -0.1399156735731578 0  0.9367002721196375 -0.4157324987180338 0  -1.90625 0 0  -0.2298618769854927 -0.08904896555277285 0  0.1397131066802196 -0.232031643549068 0  -0.4375 0.420861596936145 0  -0.3483554784186823 -0.1925292675214375 0  0.59375 0 0  -1.327632151430252 0.1057660692693074 0  -0.9830051201906395 0.3115204496273563 0  1.90625 0 0  1.236354269160391 -0.3993990952861421 0  -1.1875 0.4214935578661845 0  0.5625 -0.4247705455161483 0  -0.7349377422908023 0.1635199768201956 0  -1.583328550170068 0.08705835459183674 0  -1.640104497493491 0.2259991665335075 0  -1.467109316827997 0.2210671404637805 0  0.5896070530325394 -0.2690578560650788 0  0.3266472067106532 -0.167734762534917 0  -0.59375 0 0  -0.546875 0.08448914438556519 0  1.71875 0 0  1.156078290691277 -0.2031315651260504 0  1.337704613095238 -0.2433035714285714 0  1.236312294597949 -0.09486607142857142 0  0.1642123379155914 0.3701207892454864 0  0.2345507206108115 -0.04384512844718241 0  -0.4048861533022036 -0.02273791864794379 0  0.03798857341016919 0.3979165301900267 0  -0.4006523628802168 0.334179001454817 0  -0.1135990210174155 -0.393340785880617 0  1.906775738056482 -0.3598876272511091 0  1.720393990929705 -0.4044642857142857 0  -1.71875 0 0  1.15625 0 0  0.78125 0 0  1.53125 0 0  -0.96875 0 0  1.34375 0 0  -1.15625 0 0  1.142828909845958 -0.4078056758504979 0  0.40697192225457 -0.01923608979840619 0  -1.767708120728825 0.08966855818957545 0  -0.6882384924227143 0.4308047125515967 0  -0.3636785153797087 0.1553944795036722 0  -0.2291274285977749 0.08616080495998404 0  -0.281012338688557 -0.01202669255906096 0  0.3108677056378212 0.2586754570559801 0  -1.151751953043632 0.196872287087452 0  -0.5625 0.4330368698813529 0  0.6875 -0.4328910527173583 0  1.405021000845949 -0.3057191080886871 0  0.546875 -0.08025568181818182 0  0.3713523302229579 0.1599284134935842 0  -1.12196127795563 0.2911449911382941 0  -1.276991293863022 0.2522534749828799 0  1.255195006158927 -0.2798057638555942 0  -0.8388532729558951 0.4114132763440825 0  0.8388532729558953 -0.4114132763440825 0  -0.4557763550657601 0.2486174768248819 0  0.2049883534781638 -0.2934473685517857 0  0.3226059585583683 -0.4273378498573185 0  -1.426982449282418 0.4270508114904024 0  1.397702183984896 -0.4056170514003312 0  0.05467855045156804 0.2285245978493705 0  -0.272823163096586 -0.3046204408381326 0  -0.02656096412551515 -0.4126877256833236 0  -1.807235369718798 0.2933328120993839 0  0.1906985117418444 0.1399478964461678 0  -1.688085622354259 0.3115694793217502 0  1.659329587961023 -0.2879395206246994 0  -1.5625 0.437202380952381 0  1.546313524296827 -0.4210926184041992 0  -1.813279560389256 0.4363923695021056 0  -1.926524548924358 0.4265245489243581 0  -0.1751061200004134 -0.1578066000831913 0  0.2891187728554643 -0.268298186700636 0  0.4721679687499999 -0.2490234375 0  0.7276683718449491 -0.1720688736051095 0  0.4744973194747868 -0.4152356216385488 0  0.9322020604693165 -0.07914563824612769 0  -1.275602471792197 0.4154857864535745 0  -0.828125 0.07552171441918698 0  1.3125 -0.5 0  -1.931646474339171 0.178059096704675 0  -0.7167268019830385 0.08016211756451477 0  1.060414578698922 -0.4368616551407768 0  -1.6875 0.5 0  1.9375 -0.5 0  1.739833210773432 -0.3220974693894793 0  -2 0.3125 0  -1.207440692409131 0.07848980221212992 0  -0.04055821595704934 -0.2377097412335854 0  0.1922531441870086 -0.1190381071624572 0  1.509237778147088 -0.2717758217431455 0  0.8901922386429052 -0.2437760747352658 0  -1.498530569603453 0.07867879855510211 0  0.9849923856958628 -0.1870513965806273 0  1.515605916195201 -0.1906351698786736 0  1.439317880445072 -0.08458133750179306 0  1.932491348856277 -0.2050969650933771 0  1.828075655121533 -0.08087981225769847 0  1
[...]
<PointData  Scalars="f_45"> 
<DataArray  type="Float64"  Name="f_45"  format="ascii">5.8919996137820873e+06  4.8349198642892381e+06  3.4290871905881944e+06  3.3743061366838575e+06  3.3201462327403594e+06  3.2648319048903934e+06  3.2114848966266755e+06  3.1596386432415969e+06  3.1085040726344138e+06  3.0574897615627851e+06  3.0070986835397771e+06  2.9554524605347142e+06  2.9032430042227805e+06  2.8507082909166357e+06  2.7976998918641442e+06  2.7446820581993083e+06  2.6902436625960693e+06  2.9255493711535863e-01  -3.0136653042603534e-01  2.3063945552645079e+06  2.3712150538891079e+06  2.4300890541011649e+06  2.4881257369038756e+06  2.5461601097448478e+06  2.6026885484301960e+06  2.6579537062864071e+06  2.7140072495968714e+06  2.7697812788750995e+06  2.8264319085221668e+06  2.8830334890293023e+06  2.9402449866755297e+06  2.9975227607830265e+06  3.0552355264434856e+06  3.1134892623227490e+06  2.7529867677800311e+06  2.7094027183910809e+06  2.6912298327727914e+06  2.7004414511070517e+06  2.7358904900696008e+06  2.7912997011541878e+06  2.8605883516031853e+06  2.9333536232882184e+06  3.0004347118776939e+06  3.0541791580603682e+06  3.0869780412381226e+06  3.0917184733853606e+06  3.0692419797500200e+06  3.0222989177847290e+06  2.9576343256794722e+06  2.8869089979670560e+06  2.8146567275938694e+06  4.3599066692768140e+06  1.4464644216703263e+06  4.3167038548871977e+06  3.7005885777550768e+06  1.1168532196035420e+06  2.1262803594732084e+06  5.0662200388744315e+06  7.2751521572724835e+05  3.9061565223104972e+06  1.6856043423927042e+06  4.6452367528045326e+06  5.5722391199895286e+05  1.9250148986264924e+06  3.8125393677872261e+06  5.1752176628974145e+06  3.6466103853349219e+05  2.4266631398277837e+06  3.4133706943495409e+06  2.3472171402092953e+06  4.2568750533945942e+06  1.3806003978111462e+06  5.4670938812548006e+06  4.6983048340976797e+06  4.6516627386298394e+06  8.2839719324411859e+05  -7.2229073083180140e-01  1.0885276865085242e+06  3.8634807048477116e+05  5.0217796019116892e+06  1.7961681657148534e+06  4.0294512683681427e+06  3.3918300704724495e+06  3.2157827298692162e+06  2.6079564395047389e+06  4.1013264684051685e+06  1.6317453764461442e+06  1.1061268143257601e+06  8.3683082467944280e+05  4.4955785976691926e+06  1.3979895699728504e+06  4.1192734043715540e+06  3.6780841643788498e+06  1.9833106836429178e+06  2.7821947773459979e+05  4.7573144691301305e+06  2.4852945100441026e+06  4.7750637886243230e+06  2.9486796517272033e+06  3.0318554654185884e+06  5.0942117589194002e+06  5.4880306974118191e+05  2.6836971403846387e+06  3.2836897935907925e+06  5.3579366813507527e+06  5.2825804606825244e-01  1.8245706061222599e+05  2.8008484897032585e+06  9.9212636645436252e+05  1.2680749076580282e+06  4.5116238031043382e+06  3.5698574318440640e+06  1.6173847139194617e+06  3.9462390708245495e+06  4.4214991920135180e+06  3.6186456096189311e+06  2.1698126331893983e+06  2.1410085105618942e+06  4.9710441814703848e+06  1.8717929436595616e+05  2.5357515747199492e+06  3.8642433589672511e+06  6.0734116284568072e+05  2.7471397477593261e+05  3.1925735320574027e+06  3.5419855343163135e+06  1.2093791207518177e+06  4.3623116989506474e+06  4.0771465328890998e+06  7.5891726804255182e+05  1.4250953232782902e+06  3.2371445616851281e+06  1.9644829222998426e+06  4.9587815524225347e+06  4.8772397183949910e+06  4.8807164332969096e+06  2.4384734592668298e+06  7.1006133843121829e+05  1.8156327945859709e+06  3.4181335847844528e+06  2.2799790077504311e+06  1.2719376261927697e+06  9.4990474808168761e+05  4.8978855020830710e+05  4.8156170082495650e+06  4.4086836518017957e+06  4.6046903165869508e+06  3.9611310922306757e+06  3.7929356858051186e+06  1.8084660844743247e+06  2.0050121782558188e+06  3.6901486353100487e+06  9.0813609032196074e+05  5.4550637585652024e+06  5.7193532843612023e+06  5.4621271452180925e+05  5.2613005740434425e+06  1.6230688327499263e+06  4.1945591636279831e+06  2.5637133632236789e+06  3.2486674618315496e+06  1.8167752634717682e-01  4.5276987457979964e+06  4.7381991511741374e+06  3.0651673468478424e+06  2.2836508504364388e+06  2.5273141254318822e+06  3.1426948802215410e+06  1.9767405162327129e+06  4.2560089525965210e+06  5.2573774475323381e+06  2.8052969344469532e+06  1.7547276817270878e+06  2.9209781248872732e+06  4.1047925125778201e+06  2.3356801443181983e+06  2.9104181846282175e+06  1.5408267158789216e+06  1.4629459200543028e+06  3.4244402949644299e+06  1.7318095194042366e+05  2.8448584671166525e+06  5.1494972164906058e+06  2.6448590577484244e+06  3.7941130573299811e+06  2.7237351730958680e+06  4.5733778999380618e+06  3.6902498648260399e+06  3.3180385641391217e+06  4.2254547723179199e+06  1.5123135149737145e+06  3.9544141311837896e+06  2.6496263638987327e+06  2.5157255301354541e+06  4.9072527437772965e+06  3.2890639859558628e+06  3.1385950216071606e+06  3.3880875397299620e+05  1.5442637287016897e+06  4.7979320126992743e+06  3.0938362888869816e+06  2.6252847704015276e+06  3.5866852745432858e+06  3.1420101342761884e+06  2.1374643797270474e+06  4.4757275221388740e+06  4.2188713020991264e+06  1.3902041515676930e+05  1.1137484299002858e+06  4.5557395021144086e+06  2.0595859700680769e+06  3.8241951138403704e+06  4.7024892031784272e+06  4.9153811713635428e+06  4.7284834244550504e+06  2.0586073834764825e+06  2.4382055267557628e+06  3.5574111623661020e+06  3.5456714139669612e+06  4.1769713329411036e+05  1.2438336311645515e+06  9.7411328487865173e+05  1.1319339314420519e+06  2.8983331381995091e+06  2.6010270621128967e+06  3.3074781757128886e+06  3.0375123584599136e+06  3.5028749647733374e+06  2.8315318910296350e+06  1.3664558548572712e+05  4.0894853334616154e+05  4.7052155931330202e+06  1.2569701233311580e+06  1.8325226467226720e+06  6.9690018867940665e+05  4.0138897599525382e+06  9.7689139366524632e+05  4.2206024111525808e+06  1.2486290375360225e+06  2.4175872807512437e+06  4.8407104212037679e+06  3.9109535206280211e+06  3.3712593376934831e+06  3.1921847654051366e+06  3.1894167207088065e+06  2.7000507863553753e+06  4.3482233932906613e+06  3.7499701201222157e+06  1.8908263931230847e+06  8.7256754672709759e+05  2.1828734485143111e+06  2.5804285078606023e+06  4.3785308640778447e+06  4.5378842336295443e+06  1.0932312727169876e+06  4.0953072831764016e+06  1.6835329952923676e+06  3.5268315346750938e+06  2.5323972056596489e+06  2.3584719583214098e+06  4.8849673398846770e+06  8.7912910018889362e+05  2.9472793408943489e+06  3.0144986777578057e+06  2.7409561762657976e+06  5.1714520223865127e+06  2.7524663091566777e+06  5.0823642014607340e+06  5.0035759180922760e+05  5.0877725489977831e+06  6.6241435545581847e+05  5.4574784850965850e+06  5.5772462108205985e+06  2.9998298992282311e+06  2.4443334536607945e+06  2.2235569012937802e+06  1.8830874190130145e+06  2.1751410609511859e+06  1.5888973808418431e+06  4.6682437139253095e+06  3.8904786041508792e+06  9.9845116523917136e+05  5.0397077031945707e+06  3.7563824832526660e+06  1.3652469071396461e+06  5.3647588343395274e+06  9.1269267480306924e+04  3.8167344196195767e+05  5.3068281559205605e+06  4.3273319075067881e+06  2.8191439550375883e+06  2.6107305022896775e+06  7.2105241478381364e+05  1.6314466263532154e+06  4.6197574901353810e+06  1.4982060251820073e+06  7.1430185771347885e+05  8.3092191771364131e+05  9.9480077433014303e+04  2.5446705773421147e+05  2.7152209063168213e+05  2.6915204150711652e+06  3.2436753340577842e+06  2.0245610591521913e+06  5.0452692555970699e+06  3.1077474786432139e+06  1.0955300495173311e+05  4.8904273645885289e+06  4.9036879880810445e+06  9.8867172070273478e+05  1.3155845470735421e+06  4.5222729294471806e+06  4.1854126768488912e+06  6.4905726471888693e+05  3.6715586399347000e+06  4.6161087997879917e+06  1.7081287266084903e+06  2.5583841727168174e+06  2.3052958432542952e+06  4.5026506487877984e+06  2.8100002969777409e+05  3.1516589844737784e+06  6.2552314594133082e+05  3.2789920668714875e+06  3.4771072041199938e+06  4.9146436054161657e+06  2.3613612351891235e+06  4.9499608293644217e+05  1.2937142352947835e+06  6.0380277790220187e+05  4.0269860703834391e+05  4.3307300115274442e+06  4.8539524034908563e+06  2.0001761968221972e+05  3.0987793490859645e+05  2.2397635101461895e+06  4.0207206967951637e+06  3.3257154850725732e+06  4.9863379463282255e+06  4.7650813733456191e+06  3.3235188338084617e+06  3.2315552468012357e+06  5.2982804667630857e+06  4.4540486813056190e+06  4.0293985527657303e+06  7.6988162212404853e+05  3.9779963115630248e+06  3.0664208703105622e+06  4.4338043452851512e+06  1.7427378265605865e+06  1.5275909580349622e+06  1.4087372456123226e+06  5.2825804606825244e-01  4.0989128498507771e+06  -3.1141706616610865e-01  1.0357474592285661e+06  2.5272654179615658e+06  1.1783400240653323e+06  4.2971909726402257e+06  5.2243983852547593e+06  3.3744052655147891e+06  4.4311700095532946e+06  3.1296967022162373e+06  2.7671100883640517e+06  1.7309407319793487e+06  1.8978155533925144e+06  4.1406061358916615e+06  2.0810872902046163e+06  2.8273092128213495e+06  9.9060741801327371e+04  2.4406055120984209e+06  3.4654284450973924e+06  2.6139021510590878e+06  3.5016673224229803e+06  3.4168514725861745e+06  4.9856830517069008e+06  1.0023334742400920e+06  2.4387198771275915e+06  3.0882744786313963e+06  4.5547191207230435e+05  4.9956210329408891e+05  8.6349515774072520e+05  1.3241686512100333e+06  1.3276668268437700e+06  3.6167947659787079e+06  1.1880348973195986e+06  2.6631839175704792e+06  4.0327827537644273e+06  1.7736039523504076e+06  1.8968882246423704e+06  3.9992540818769899e+06  3.8996650252837227e+06  2.8768004726704308e+06  1.8328940193730481e+06  3.0117744039986888e+06  3.7579857682561292e+06  5.2738323380912526e+05  4.7923234083291562e+06  4.7252548364983080e+06  4.6359000498797055e+06  4.6830220499181757e+06  3.8768376263071313e+06  3.7813639417164628e+06  3.7003609411395113e+06  4.3872062646787828e+06  2.0932339475239599e+06  2.2480627681623725e+06  4.7758618735126378e+06  2.9656162901338213e+06  3.0024984259328255e+06  3.1400444901763401e+06  2.7598001228226610e+06  3.8630995195277962e+06  3.6028382557931384e+06  4.9840680147887710e+06  9.1378998657641571e+05  2.7281782628305205e+06  2.9581662589275371e+06  2.8598837140746727e+06  2.9581197869440094e+06  2.8923487237822511e+06  4.1977588648403194e+06  3.2197416052005230e+06  3.1799795913104638e+06  4.8104382338739075e+06  4.6757534461013423e+06  4.6246963297204720e+05  2.4990496315264488e+06  3.3852682890855852e+06  4.7775690672940174e+06  3.8279323761791671e+06  8.1454863031470290e+04  3.6598275221945569e+06  1.4533432027137328e+06  4.1117495170432092e+06  4.1705313478738670e+06  4.1761232179065426e+06  4.3380575385747841e+06  1.1846337437704818e+06  1.9766487616540424e+06  2.0465993426016246e+06  2.3541271347537534e+06  4.4435100323504470e+06  5.5659021697344713e-01  1.3574819962496900e+06  5.0615611447981764e+06  5.6480507149701966e+06  5.8339226937879613e+06  6.3684909193640377e+05  5.1609131171612879e+06  4.9708988595253592e+06  3.9463101115723103e+06  4.6123671068786988e+06  3.6204013573236456e+06  1.5352920067996720e+06  3.3193476134562525e+06  2.4960627386708339e+06  2.5790838005687366e+06  4.2767194911976438e+06  2.6280607986369138e+06  3.7822259891018132e+06  1.8813830103274316e+06  5.5881198981063487e+06  1.8167752634717682e-01  2.7364102934795467e+05  8.1788560262629366e+05  1.7099725176212529e+06  2.2040667143550250e+06  4.7868787204465512e+06  7.6680542356132262e+05  4.1257099699790485e+05  2.5358991412404790e+06  4.8446609475610079e+06  3.2413146850882145e+06  1.1868714855955341e+06  1.2184128533216270e+06  3.1063608679907136e+06  3.1648960361604462e+06  2.4008994483074676e+06  8.7808321193828189e+04  1.0828410917826456e+06  4.2662190341567751e+06  1.9157640666924922e+06  2.0922734007313816e+05  2.0591239835896883e+06  1.4690220848727801e+06  1.4142873580175666e+06  5.1225193353765886e+06  9.2001374806270120e+05  2.3025156255844678e+06  1.9868964849841897e+06  5.1676601609746097e+06  5.3725028131669024e+06  5.3255928735497305e+06  1.9759890160093321e+06  3.3466253296155953e+06  2.1407607902710470e+06  1.5428912722314554e+06  1.5073564872007330e+06  1.4162512183614958e+06  4.9273503333462700e+06  2.8802753706287760e+06  3.6192743349354556e+06  2.5989758635633597e+06  4.5531385897535374e+06  2.8391815402766354e+06  2.2553236561812898e+06  2.6568885012857155e+06  3.4349930359741310e+06  3.9066701808859529e+06  4.0981471560619371e+06  3.4647331280486486e+06  2.9484111978844269e+06  1.8544769624788451e+05  4.2548269475528765e+06  1.3750750439315781e+06  4.8094861997542307e+06  2.6503396542207133e+06  3.0103907686061915e+06  3.5033252156506153e+06  7.5408541031218204e+05  1.0724502617782652e+06  2.8523179331434630e+06  4.9248335603708765e+06  4.2541565161600215e+06  5.1399207732567973e+06  5.2382619946159236e+06  5.0491878763796985e+06  3.2675225220283633e+05  5.5554699830620214e+06  2.2351171223121830e+06  2.1001881888142996e+06  2.7784527162064514e+06  4.5909522929184930e+06  2.6656098633813472e+06  2.7678778272505826e+06  3.2265758885822087e+06  4.8683632797943717e+06  3.0703749878918584e+06  7.7604703536153131e+05  4.8149325258291382e+06  6.9516623691076864e+04  5.8052714496416319e+05  1.8121502634178649e+05  5.9005358123151050e+05  2.4955334101521359e+06  1.1361099825797006e+06  3.8125406067789723e+06  1.8829599576344509e+06  2.5990959609911772e+06  3.2149721530631674e+06  3.9601399602880506e+06  2.8966756022820631e+06  2.8235968530866052e+06  1.5603400940496591e+06  2.3512874821068756e+06  2.6841549402522277e+06  2.7053527145838020e+06  4.4197458652235428e+06  2.7473352859201371e+06  8.0459291311841155e+05  3.0814382094317880e+06  4.0320407457474787e+06  4.5513999190931814e+06  5.4225167388833221e+06  3.1881832933020629e+06  4.1775893437796580e+06  1.8599080003411034e+06  3.2016530077529512e+06  3.3086282137969732e+06  4.0304196662848345e+06  3.8787454332135567e+06  3.4389472237819848e+06  1.0566281843151886e+06  2.5638123953692862e+06  2.4660723715575114e+06  1.7306852325456680e+06  4.4318100473738061e+06  4.4542146562136449e+06  3.0498838988398388e+06  2.4326731880579097e+06  3.7363452018282264e+06  4.9969478685520506e+06  3.2753599499912281e+06  3.1694737721204055e+06  3.6798536914171227e+06  3.3668817915678411e+06  1.6953521448751688e+06  2.5776421105352407e+06  3.1833627071682010e+06  3.1424674334307341e+06  1.4489784310991319e+06  1.5750764170297999e+06  4.1513346090118838e+06  4.2952762340422077e+06  4.1764080585099971e+06  1.7895778136563972e+06  2.7739298559471541e+06  7.0656369124197387e+04  1.9617604155460387e+06  1.5842749797059018e+06  1.5832620555098958e+06  4.6896890527528832e+06  1.4959442493374578e+06  1.8010442250639477e+06  2.6991067256250791e+06  2.6134759202832864e+06  2.6701412275331123e+06  2.4700861609383873e+06  2.3722019222069196e+06  3.0084136873213849e+06  3.1088263501733849e+06  3.3675826200289899e+06  2.6457557140617573e+05  2.7033455993752824e+06  2.6793768284985577e+06  2.5950880045487750e+06  3.0841487856488335e+06  3.0338662183418837e+06  3.1387943514987202e+06  1.6710644748029474e+06  1.0538682141027004e+06  1.0131772124887843e+06  8.9301384714453784e+05  2.9433115936546307e+06  4.4818057595822923e+06  1.2259077177195260e+06  8.3883506124761200e+05  3.7366440756450891e+06  2.1927873876140150e+06  4.7323226713094646e+06  1.3231413164879603e+06  1.6770508188465873e+06  3.1460979034074396e+06  1.0425646968706704e+06  2.9875683369620298e+06  3.5466768621869232e+06  3.4807292585950377e+06  2.9013786812450686e+06  1.1870947602135020e+06  4.6332917110338379e+06  4.2896205696476009e+06  4.1140843008403020e+05  2.7454407121637431e+06  3.2792326244473434e+06  2.6521078488920880e+06  3.2974965988248638e+06  4.5359342445798013e+06  4.2968089882088889e+05  3.7088527792530446e+06  3.6432179915388194e+06  3.5628964513042164e+06  3.5729226887979610e+06  3.4049803495790757e+05  2.5348297567995675e+06  3.1394601810519923e+06  3.2260346096778046e+06  2.0860213536088658e+06  3.4795055594873340e+06  4.5241129590185350e+06  4.6264164392610090e+06  4.8034275045636985e+06  2.5047029170847763e+06  2.4724502564729596e+06  9.1148316210838419e+05  8.3521411056645401e+05  3.3898455468744651e+05  5.7841503460217139e+05  3.3370014617591230e+06  4.5423399292672556e+06  1.4706835932043882e+06  1.8653106305978054e+05  3.9605142471363540e+06  4.3635289415056370e+06  3.7571700153438454e+06  5.2177951835013386e+06  2.2991939648664016e+06  2.3949263917987030e+06  1.2971700255285886e+06  4.9973233515803982e+06  3.1819518108429131e+06  2.0596549163307883e+06  4.6073241320704892e+06  4.4866700234921416e+06  4.5033534008237971e+06  3.6486071677876101e+06  3.3311843313547834e+06  1.6141560718943554e+06  4.8744894953441370e+05  2.0931728637107739e+06  2.0086629141648423e+06  3.3579145976458085e+06  3.2505988727444895e+06  4.1586494956175699e+06  3.7025744016569764e+06  1.6497095056352834e+06  2.5470570084126024e+06  2.9729592673460594e+06  3.5420086883410700e+06  2.2843725198272374e+06  3.2682395234602452e+06  4.6760270662117442e+06  9.1152512304929155e+05  5.2688980453290669e+06  9.4469556596642372e+05  4.3903699591543283e+06  2.1704834793967609e+06  3.5494419216811289e+06  2.4848944124087938e+06  4.8432655814759322e+06  4.6699199876836771e+06  4.6956955532503249e+06  4.6698645767935375e+06  2.7904622737052441e+06  2.6230898528572326e+06  3.9675404761168961e+06  4.7791586095663514e+06  4.8438021215420561e+06  3.1124292996994387e+06  2.8746287543535177e+06  2.8516715771450480e+06  4.8557215086764377e+06  3.2711300578983240e+06  1.1470026923325730e+06  3.6303922763490044e+06  3.3788824543857095e+06  4.0277992210837537e+06  1.6622652442541439e+06  1.6508422878933318e+06  5.2342100268886108e+06  4.5904369428596869e+06  2.8891190189007437e+06  3.2471691385083920e+06  2.6366651175190033e+06  2.5408630305045145e+06  4.5255099194369391e+06  2.4066425081838071e+06  4.7421449614599738e+06  1.4966266277499340e+05  5.3720333092149692e+06  2.9282161070714197e+06  2.3785589945194665e+06  2.4554729869022444e+06  2.1893959009635695e+06  1.3124340171303598e+06  1.2570456636224478e+06  1.1715777678977295e+06  3.3179571127440934e+06  2.5813819368865476e+06  3.0033442377553913e+06  1.9936180774666870e+06  4.5996867099629738e+05  3.5861104680035403e+06  1.4133010602761456e+05  2.0469089588191864e+05  3.0332339409497818e+06  3.0497663994869739e+06  3.0903894480248066e+06  2.8271700183183621e+06  3.1353255892629181e+06  1.3274000741676642e+06  1.9077815941457076e+06  5.1761950944880256e+06  1.0468527048713756e+06  4.0668565509118135e+06  6.2702091315037862e+05  4.4527024033084894e+06  4.2687135824978733e+06  3.8508741033618054e+06  2.2177094023507833e+06  9.0692246845726122e+05  3.4789372200384823e+05  2.0861219084490559e+05  4.3634174643941047e+06  3.6182839956478765e+06  1.7584565810031672e+06  1.6130198718736281e+06  3.4948320144731509e+06  4.6099405357433204e+06  3.8873700563464132e+06  3.8389764840535754e+06  3.0637334608855210e+06  4.3850376990156556e+06  4.3111694675565073e+06  4.4433442140349960e+06  4.9683325663586529e+06  4.9599564583738623e+06  4.1264038385498417e+06  4.9777644013756532e+06  4.8688306142316498e+06  5.4332749404931639e+05  5.4698562688001897e+05  4.5767481630005786e+05  7.4320681640353185e+04  2.1934657929911162e+06  2.1536858321826253e+06  2.2564818042224515e+06  3.9390468620685423e+06  3.9694607282589003e+06  4.0400470679164035e+06  3.5610300038006618e+06  2.1906664661911605e+06  3.1839608811549935e+06  3.8208839560936876e+06  5.3428635608415701e+05  1.2497953988316818e+06  8.0553755812528066e+05  4.7285046470675021e+06  3.2041186266182660e+05  1.7455297028426423e+06  1.2044418190375557e+06  2.4175261573863481e+06  1.8432696827648839e+06  1.9373529342052487e+06  2.2825991771229240e+05  1.8295180745094221e+06  3.8091654608291150e+06  4.8426553503630441e+06  6.2086800254135521e+05  6.9139325783631043e+05  6.8313176256730140e+05  3.2807903837618125e+06  2.7158139994253190e+06  1.5013877425242225e+06  2.9203200851490120e+06  4.7643733314766865e+06  6.5166834902834194e+05  2.8782020350667182e+06  2.9269516268709446e+06  1.14060011272238