<?xml version="1.0"?>
<VTKFile type="UnstructuredGrid"  version="0.1"  >
<UnstructuredGrid>
<Piece  NumberOfPoints="1981" NumberOfCells="3668">
<Points>
<DataArray  type="Float64"  NumberOfComponents="3"  format="ascii">-2 0.5 0  -2 0 0  -0.5 0 0  -0.4968561049466213 -0.05598223805165387 0  -0.4874639560909119 -0.1112604669781569 0  -0.4719416651541838 -0.1651395309775835 0  -0.4504844339512096 -0.216941869558779 0  -0.4233620996141421 -0.2660160382576682 0  -0.3909157412340148 -0.3117449009293669 0  -0.3535533905932738 -0.3535533905932737 0  -0.3117449009293669 -0.3909157412340148 0  -0.2660160382576683 -0.4233620996141421 0  -0.2169418695587791 -0.4504844339512095 0  -0.1651395309775836 -0.4719416651541837 0  -0.1112604669781573 -0.4874639560909118 0  -0.05598223805165402 -0.4968561049466213 0  -9.184850993605148e-17 -0.5 0  2 -0.5 0  2 0 0  0.5 0 0  0.4968561049466213 0.05598223805165393 0  0.4874639560909118 0.1112604669781572 0  0.4719416651541838 0.1651395309775835 0  0.4504844339512096 0.2169418695587791 0  0.4233620996141421 0.2660160382576683 0  0.3909157412340149 0.3117449009293667 0  0.3535533905932738 0.3535533905932737 0  0.3117449009293668 0.3909157412340149 0  0.2660160382576683 0.4233620996141421 0  0.2169418695587791 0.4504844339512096 0  0.1651395309775837 0.4719416651541837 0  0.1112604669781572 0.4874639560909118 0  0.05598223805165384 0.4968561049466213 0  3.061616997868383e-17 0.5 0  0.1398708344106534 0.05418624992807294 0  0.15 0 0  0.1398708344106534 -0.05418624992807295 0  0.1108513375830988 -0.1010543465469837 0  0.06686075336648065 -0.1342744937032594 0  0.01384025391949536 -0.1493601264442552 0  -0.04104944851081246 -0.1442738464759228 0  -0.09039519545688858 -0.1197025840920358 0  -0.1275325703594421 -0.07896482443160337 0  -0.1474459649525853 -0.02756242767248552 0  -0.1474459649525853 0.02756242767248555 0  -0.1275325703594421 0.07896482443160341 0  -0.09039519545688844 0.1197025840920359 0  -0.04104944851081243 0.1442738464759228 0  0.0138402539194953 0.1493601264442552 0  0.06686075336648074 0.1342744937032593 0  0.1108513375830989 0.1010543465469836 0  -1 0.5 0  1 -0.5 0  -1.25 0 0  -0.5 0.5 0  1.25 0 0  0.4999999999999999 -0.5 0  -1.5 0.5 0  1.5 -0.5 0  -0.875 0 0  0.875 0 0  -1.625 0 0  1.625 0 0  0.6875 -0.2500000000000001 0  -0.6875 0.25 0  -2 0.25 0  1.75 -0.5 0  0.2499999999999999 -0.5 0  -0.3583969912126916 0.25 0  0.3749999999999999 -0.25 0  -1.0625 0.21875 0  1.0625 -0.21875 0  -1.75 0.5 0  -1.25 0.5 0  -1.375 0.25 0  1.4375 -0.21875 0  2 -0.25 0  1.25 -0.5 0  1.7375 -0.2375 0  -1.7375 0.2375 0  0.75 -0.5 0  -0.75 0.5 0  -0.25 0.5 0  -0.1570377317087672 0.3153742794659282 0  0.1249999999999999 -0.3338777090152827 0  -0.8826650943396226 0.3263561320754717 0  0.8826650943396227 -0.3263561320754717 0  1.25 -0.1897321428571428 0  1.4375 0 0  -1.4375 0 0  1.0625 0 0  -1.0625 0 0  -0.6875 0 0  0.6875 0 0  1.8125 0 0  -1.8125 0 0  0.3263011380546194 -0.06940056902730968 0  -1.554017857142857 0.1790178571428572 0  0.08847100915780901 0.3109433440851622 0  -0.2412983234264066 -0.2156373655531345 0  -1.625 0.3744047619047619 0  1.625 -0.3744047619047619 0  0.2743272717766799 0.1698562554772697 0  -0.3279338175957848 0.06764246763930631 0  -1.863068181818182 0.3630681818181818 0  2 -0.375 0  1.875 -0.5 0  -0.05442366733490933 -0.3203147637646457 0  1.321986607142857 -0.3448660714285714 0  1.125 -0.5 0  -1.209821428571429 0.3236607142857143 0  -0.5229484956063458 0.1781011282952406 0  0.9067445847815293 -0.1625224987586892 0  -0.8335714777578845 0.1642411083184135 0  -1.237063437253354 0.1627182813733228 0  -0.4947697009489606 0.3378596801347012 0  0.53125 -0.171875 0  0.5156249999999999 -0.3359375 0  -2 0.125 0  1.873225308641975 -0.1497685185185185 0  0.2341337966231563 -0.1911191776024666 0  -0.625 0.5 0  1.587453076345555 -0.2288757784711196 0  1.8125 -0.3654761904761905 0  -0.3326862624810256 -0.08869875963335262 0  -0.375 0.5 0  1.174048204529175 -0.319244854540162 0  -1.067618031042359 0.3674567846760797 0  -0.96875 0.109375 0  1.481463366596639 -0.3565498074229692 0  1.023503306098383 -0.3576535124663073 0  -0.2265388519390893 0.1866542405407749 0  0.625 -0.5 0  -1.852445652173913 0.1432065217391304 0  -1.375 0.5 0  -1.479101577239454 0.3541992113802732 0  0.2708871299591885 -0.3541935649795943 0  1.520204106978579 -0.109375 0  0.78125 -0.1026731411563172 0  -0.3125 0.3785994323952442 0  0.3749999999999999 -0.5 0  1.141568346088435 -0.109375 0  1.358431653911565 -0.109375 0  1.668712727161379 -0.1246887081867154 0  -1.673050595238095 0.1226339285714286 0  -1.34375 0 0  -1.431523109243698 0.1313182773109244 0  -0.7546231943577876 0.3660317014105531 0  -0.6233296454587935 0.3645528204344609 0  0.7546231943577878 -0.3660317014105531 0  0.6537002726710706 -0.125 0  -0.6441338591766993 0.125 0  1.375 -0.5 0  -2 0.375 0  -1.875 0.5 0  1.625 -0.5 0  -1.625 0.5 0  0.875 -0.5 0  -0.875 0.5 0  0.1249999999999999 -0.5 0  -0.125 0.5 0  2 -0.125 0  -1.125 0.5 0  -1.354082022940739 0.375 0  -0.03500388138134332 0.2732363193989585 0  0.3955099577726473 -0.3752808566622692 0  0.3596026196703111 0.0631070919012526 0  -0.0625 0.394061918116807 0  0.6342080192637126 -0.3582597885274255 0  -1.123666900137815 0.109375 0  -1.744588744588745 0.3803841991341991 0  0.2210084381421171 0.2925777566973838 0  0.8072251313743133 -0.2315819627814412 0  -0.1814335426834733 -0.3282792760620681 0  -0.9356634513979559 0.2218154628239019 0  0.4183753556420685 -0.1414382112841371 0  -0.1238894550978499 -0.2292394949250368 0  0.96875 0 0  1.013652292192466 -0.1102204462032291 0  -0.4393328341626322 0.09834605222123384 0  1.882206434331873 -0.2686982850037661 0  0.1426699461850768 0.2146575767791519 0  -1.886304127069339 0.251758104550396 0  0.2495743011762567 0.06264742837969955 0  -0.78125 0 0  0.04042933102838756 -0.2590839715717854 0  -1.53125 0 0  -0.5823692714154002 0.2663576540687616 0  -0.2594008044921133 0.2871583817002197 0  -0.9375 0.4157678007976423 0  0.9696186653311423 -0.2675997292662616 0  -0.7942971416386473 0.2646257048857303 0  0.06249999999999992 -0.4169388545076413 0  0.1874999999999999 -0.4169388545076413 0  -1.562839467699977 0.2864000626355251 0  -0.1875 0.4157529178973974 0  -0.1223698320396133 0.2179970721626365 0  1.770639498024741 -0.1399156735731578 0  0.9367002721196375 -0.4157324987180338 0  -1.90625 0 0  -0.2298618769854927 -0.08904896555277285 0  0.1397131066802196 -0.232031643549068 0  -0.4375 0.420861596936145 0  -0.3483554784186823 -0.1925292675214375 0  0.59375 0 0  -1.327632151430252 0.1057660692693074 0  -0.9830051201906395 0.3115204496273563 0  1.90625 0 0  1.236354269160391 -0.3993990952861421 0  -1.1875 0.4214935578661845 0  0.5625 -0.4247705455161483 0  -0.7349377422908023 0.1635199768201956 0  -1.583328550170068 0.08705835459183674 0  -1.640104497493491 0.2259991665335075 0  -1.467109316827997 0.2210671404637805 0  0.5896070530325394 -0.2690578560650788 0  0.3266472067106532 -0.167734762534917 0  -0.59375 0 0  -0.546875 0.08448914438556519 0  1.71875 0 0  1.156078290691277 -0.2031315651260504 0  1.337704613095238 -0.2433035714285714 0  1.236312294597949 -0.09486607142857142 0  0.1642123379155914 0.3701207892454864 0  0.2345507206108115 -0.04384512844718241 0  -0.4048861533022036 -0.02273791864794379 0  0.03798857341016919 0.3979165301900267 0  -0.4006523628802168 0.334179001454817 0  -0.1135990210174155 -0.393340785880617 0  1.906775738056482 -0.3598876272511091 0  1.720393990929705 -0.4044642857142857 0  -1.71875 0 0  1.15625 0 0  0.78125 0 0  1.53125 0 0  -0.96875 0 0  1.34375 0 0  -1.15625 0 0  1.142828909845958 -0.4078056758504979 0  0.40697192225457 -0.01923608979840619 0  -1.767708120728825 0.08966855818957545 0  -0.6882384924227143 0.4308047125515967 0  -0.3636785153797087 0.1553944795036722 0  -0.2291274285977749 0.08616080495998404 0  -0.281012338688557 -0.01202669255906096 0  0.3108677056378212 0.2586754570559801 0  -1.151751953043632 0.196872287087452 0  -0.5625 0.4330368698813529 0  0.6875 -0.4328910527173583 0  1.405021000845949 -0.3057191080886871 0  0.546875 -0.08025568181818182 0  0.3713523302229579 0.1599284134935842 0  -1.12196127795563 0.2911449911382941 0  -1.276991293863022 0.2522534749828799 0  1.255195006158927 -0.2798057638555942 0  -0.8388532729558951 0.4114132763440825 0  0.8388532729558953 -0.4114132763440825 0  -0.4557763550657601 0.2486174768248819 0  0.2049883534781638 -0.2934473685517857 0  0.3226059585583683 -0.4273378498573185 0  -1.426982449282418 0.4270508114904024 0  1.397702183984896 -0.4056170514003312 0  0.05467855045156804 0.2285245978493705 0  -0.272823163096586 -0.3046204408381326 0  -0.02656096412551515 -0.4126877256833236 0  -1.807235369718798 0.2933328120993839 0  0.1906985117418444 0.1399478964461678 0  -1.688085622354259 0.3115694793217502 0  1.659329587961023 -0.2879395206246994 0  -1.5625 0.437202380952381 0  1.546313524296827 -0.4210926184041992 0  -1.813279560389256 0.4363923695021056 0  -1.926524548924358 0.4265245489243581 0  -0.1751061200004134 -0.1578066000831913 0  0.2891187728554643 -0.268298186700636 0  0.4721679687499999 -0.2490234375 0  0.7276683718449491 -0.1720688736051095 0  0.4744973194747868 -0.4152356216385488 0  0.9322020604693165 -0.07914563824612769 0  -1.275602471792197 0.4154857864535745 0  -0.828125 0.07552171441918698 0  1.3125 -0.5 0  -1.931646474339171 0.178059096704675 0  -0.7167268019830385 0.08016211756451477 0  1.060414578698922 -0.4368616551407768 0  -1.6875 0.5 0  1.9375 -0.5 0  1.739833210773432 -0.3220974693894793 0  -2 0.3125 0  -1.207440692409131 0.07848980221212992 0  -0.04055821595704934 -0.2377097412335854 0  0.1922531441870086 -0.1190381071624572 0  1.509237778147088 -0.2717758217431455 0  0.8901922386429052 -0.2437760747352658 0  -1.498530569603453 0.07867879855510211 0  0.9849923856958628 -0.1870513965806273 0  1.515605916195201 -0.1906351698786736 0  1.439317880445072 -0.08458133750179306 0  1.932491348856277 -0.2050969650933771 0  1.828075655121533 -0.08087981225769847 0  1
[...]
<PointData  Scalars="f_45"> 
<DataArray  type="Float64"  Name="f_45"  format="ascii">1.2851891181218899e+06  9.2631710831459053e+05  7.2258354982795217e+05  7.1785839082383830e+05  7.1199075982042821e+05  7.0532589844172995e+05  6.9634092223460483e+05  6.8508448813274328e+05  6.7229539796821750e+05  6.5894640027727280e+05  6.4530869678110851e+05  6.3161354754665354e+05  6.1782524980930309e+05  6.0389856328752113e+05  5.8977519540000544e+05  5.7551534365100181e+05  5.6084978998036508e+05  3.9729385110837345e-02  -4.3194460095055787e-02  4.5745481021372048e+05  4.6231663709891838e+05  4.6865572988132626e+05  4.7678374727061752e+05  4.8678746935831831e+05  4.9917751315682451e+05  5.1301576700704411e+05  5.2752513106613501e+05  5.4253127678773028e+05  5.5779788017941581e+05  5.7280045431819384e+05  5.8805191396756284e+05  6.0346881345599680e+05  6.1913187912376423e+05  6.3526861182530376e+05  5.6244867203309876e+05  5.5640424605857406e+05  5.5605322341161361e+05  5.6143288103322987e+05  5.7094573578448896e+05  5.8343409734683170e+05  5.9688390927360591e+05  6.1028603055235988e+05  6.2184848762367258e+05  6.2976141017329285e+05  6.3322361673636024e+05  6.3257895855141082e+05  6.2710113362704753e+05  6.1666517694516690e+05  6.0301420257713215e+05  5.8766294042213948e+05  5.7346312157717731e+05  9.6643725422066683e+05  2.8189510857404035e+05  8.5132155208183569e+05  7.9009628960511542e+05  2.3132687065410760e+05  4.2309704469018168e+05  1.1573755664309422e+06  1.3988265872161707e+05  7.9051178688225430e+05  3.4936904928027082e+05  8.9076634203343757e+05  1.1624343782097497e+05  3.8663943202053191e+05  8.0528010263676348e+05  1.0724845669967674e+06  7.0291013777325308e+04  4.9321534162508405e+05  7.1529341648709448e+05  4.7518449847693334e+05  8.9566940471172845e+05  2.7831135447370325e+05  1.2243097091187087e+06  1.0644092155720307e+06  9.8402070494311966e+05  1.6682957421254818e+05  -9.9040503027315374e-02  2.1048246657554348e+05  7.7631294430494672e+04  1.0443552426871741e+06  3.5286408731330169e+05  8.7536798559029296e+05  7.1047209839731094e+05  6.6514150651411514e+05  5.3845550418011309e+05  8.7792271469609370e+05  3.2534512788568978e+05  2.2365352824841699e+05  1.7402128548457060e+05  8.7244649596030754e+05  2.8894658399248717e+05  8.2576567985274037e+05  7.5665307132363797e+05  4.0517498420816421e+05  5.8060413039358864e+04  9.0671189476398169e+05  5.0171300041689433e+05  9.8155661570789898e+05  5.9627031343501213e+05  6.4168205853902746e+05  1.1113306896661711e+06  1.0782337896241123e+05  5.3383691796077241e+05  6.8720570282941940e+05  1.1469175462866123e+06  7.0676461199487672e-02  3.5200269893685370e+04  5.8658004481529130e+05  1.9621059543946196e+05  2.4617069370091255e+05  9.7469572734597593e+05  7.5026570279285673e+05  3.2820468488514551e+05  8.2345900564078474e+05  9.1484258927865385e+05  7.6561670145205362e+05  4.3654543202164967e+05  4.2968216054386739e+05  9.9209391681252629e+05  3.8151278730139180e+04  5.1893226099271973e+05  8.3222537556377531e+05  1.2215443106725362e+05  5.4099351308013749e+04  6.7487731324396597e+05  7.4928038862042048e+05  2.4048609456171194e+05  9.4780538934090245e+05  8.3975538392835471e+05  1.4959277519238211e+05  2.8259873966225109e+05  6.7169355958621635e+05  3.8801613284677878e+05  9.9671136851128191e+05  1.1122970032080112e+06  1.0641764037254308e+06  4.9701867476048152e+05  1.4541928661182828e+05  3.6983647274905763e+05  7.1674231344302197e+05  4.5822402823591913e+05  2.5974933904530015e+05  1.9424585728177350e+05  1.0018119924250129e+05  9.6591329565263435e+05  8.6205396433648677e+05  9.3631656642017420e+05  8.4852611177774705e+05  8.0819668352657801e+05  3.5983107633612689e+05  4.0508971465521236e+05  7.7105699804524833e+05  1.7494647389704632e+05  1.1651757779325149e+06  1.2571457161617349e+06  1.0498733515616535e+05  1.1931837710668074e+06  3.1753918667141290e+05  9.1963990858353220e+05  5.2748049010687298e+05  6.7273285539579403e+05  2.5127872166550103e-02  1.0167726901043510e+06  1.0405090830840244e+06  6.2702095023454051e+05  4.6080635975177604e+05  5.0176983906724473e+05  6.4527935494952684e+05  3.9463175745402474e+05  8.7202173628986045e+05  1.1398740846114622e+06  5.5856367306407867e+05  3.5322181228254322e+05  6.1806016320815054e+05  8.6416411462286708e+05  4.7058948135886685e+05  6.1090555438119126e+05  3.1897512040768418e+05  2.9875927418792213e+05  7.1903374246066541e+05  3.4639304441511165e+04  5.7365964515472157e+05  1.0697257980205778e+06  5.3275004044817958e+05  7.7286444088748540e+05  5.6667038799415249e+05  8.8197500446507020e+05  7.7962159782024554e+05  6.9145622949382942e+05  9.1955824810578756e+05  3.0327404328486748e+05  8.3736797346859251e+05  5.4947428694842220e+05  5.1574704172423657e+05  1.0444720567331915e+06  6.8361993261283496e+05  6.4593712375592382e+05  6.9154767377053213e+04  3.0460333794078004e+05  9.1495339868221665e+05  6.4803987052342563e+05  5.4211073499770544e+05  7.5956634213981801e+05  6.7102593915578781e+05  4.3104772358810116e+05  9.0716103671702312e+05  9.0362941429562867e+05  2.8978196322662945e+04  2.1878053060269152e+05  1.0081335471391679e+06  4.1051693442358577e+05  7.9968102767562901e+05  9.3467067055053532e+05  1.0227034541338597e+06  9.8883560375115648e+05  4.1327674776677304e+05  4.9460046543120081e+05  7.4071719786449627e+05  7.4273713470025582e+05  8.7221387565078432e+04  2.5111555934152839e+05  1.9549451957772477e+05  2.3166817171937961e+05  5.8040163672862074e+05  5.2949851151415473e+05  6.9852269714639406e+05  6.1714585204922454e+05  7.3755161223249114e+05  5.9644422537524591e+05  2.6944722601778365e+04  7.9988893498116391e+04  8.9840537668045773e+05  2.5994058837500250e+05  3.7833503135138843e+05  1.4517010457818070e+05  8.0864245107323315e+05  2.0275433807825812e+05  8.3991315244893648e+05  2.4545184413634764e+05  4.8245224866341276e+05  9.5640507105970068e+05  8.4073052343271277e+05  7.0589660241355957e+05  6.6225540294749767e+05  6.6757235000424134e+05  5.3081317023666855e+05  9.0958414239202347e+05  8.0066674565582618e+05  3.7470913924398611e+05  1.7346103835465931e+05  4.3856872677410347e+05  5.0559430536391080e+05  9.3691362849249446e+05  9.6192982222485775e+05  2.1837836052583609e+05  8.8562286998460011e+05  3.3294101702163549e+05  7.4220277116891334e+05  5.1952305353033793e+05  4.7769635486904799e+05  1.0902996595026266e+06  1.7205393132147749e+05  5.9867504078310821e+05  6.4280602480594791e+05  5.7305079630789091e+05  1.0902199641867387e+06  5.5471461940197356e+05  1.0839305743921073e+06  9.9714960237566862e+04  1.1357259595214536e+06  1.2911972315025180e+05  1.1932756515827598e+06  1.2050492486115603e+06  6.2899906708171731e+05  4.9795997756472230e+05  4.4789118356033613e+05  3.8043916536635900e+05  4.3592839681927353e+05  3.2570905943597946e+05  1.0352346673670500e+06  8.0036630815469124e+05  1.9268944475232580e+05  1.0232737225096613e+06  7.7824913035875594e+05  2.6783083954816405e+05  1.2094507853332574e+06  1.7644983827618136e+04  7.5659750938227182e+04  1.1179971887882405e+06  8.7589167393980525e+05  5.8926010002888681e+05  5.3617692142015405e+05  1.4404356740600895e+05  3.2810698490327352e+05  9.1935221706019272e+05  3.0322970062041981e+05  1.4449108156262798e+05  1.7066093453237214e+05  2.0099452318648331e+04  5.2429688965017216e+04  5.4813174043586339e+04  5.5939428612652689e+05  6.9182579146260803e+05  4.0747571269594278e+05  1.0385882343848159e+06  6.5708460477140348e+05  2.2562647677588062e+04  9.5528993917187583e+05  9.6567192463108920e+05  1.9319873213418399e+05  2.6105962879983761e+05  9.3885009162561886e+05  8.6540529772424325e+05  1.2836567344975293e+05  7.7173220624396589e+05  1.0001522148924695e+06  3.4999935736429563e+05  5.1514787048877851e+05  4.6173803676449298e+05  8.9610672191540583e+05  5.6008909564168738e+04  6.4952893556104810e+05  1.2916218767497966e+05  6.8360737009299069e+05  7.3014568045979133e+05  9.9672827273575100e+05  4.7881746905269451e+05  9.9958499933739658e+04  2.5911189571331997e+05  1.2298716177005932e+05  8.3032852783486320e+04  9.4861747959643614e+05  9.5065262515058531e+05  3.9041138566742178e+04  6.0342961877390262e+04  4.5132545689683640e+05  8.4795524800953607e+05  6.9319960413891263e+05  1.0882397704304105e+06  1.0194529885134493e+06  6.9328906893026468e+05  6.6960602259791258e+05  1.1189482844012054e+06  9.6975133373499766e+05  8.3794516383389162e+05  1.4990663345640534e+05  8.1491324319455842e+05  6.2612854143841611e+05  9.7888739045281580e+05  3.4830384997331782e+05  3.0393008646447182e+05  2.8170108273132512e+05  7.0676461199487672e-02  8.3336345103381225e+05  -4.2517154720947525e-02  2.1304552187520108e+05  5.1473122905844095e+05  2.2828382818902223e+05  9.1981171758879849e+05  1.1593134179252179e+06  7.0572923912764760e+05  9.4130510906338482e+05  6.4981346694581280e+05  5.5363111732258380e+05  3.5100784563682706e+05  3.8755044341541617e+05  8.6392594902705250e+05  4.2022251531525818e+05  5.6094815787897969e+05  1.9345954628603653e+04  4.8133446892111469e+05  7.2952027193167468e+05  5.2055346881631180e+05  7.3823188567807060e+05  7.1621725745851547e+05  1.1138822053838607e+06  2.0316276349917176e+05  4.9690736785635044e+05  6.6174818741210690e+05  8.7660031268862396e+04  9.7140698056897309e+04  1.7560646408779849e+05  2.7227115792261047e+05  2.6938304542613128e+05  7.5400923194301536e+05  2.4146538723929963e+05  5.5137269995856239e+05  8.6395787729592936e+05  3.5053458755052474e+05  3.7913369246422901e+05  8.6306834652109083e+05  8.2860601591986814e+05  5.7751301011386199e+05  3.6739683703958616e+05  6.1463480090715038e+05  7.8876955693270348e+05  1.0891340098692445e+05  9.7189547185712145e+05  9.2810768798023707e+05  9.6257060771411762e+05  9.5397922218168376e+05  8.2823518431152008e+05  8.0181326933027920e+05  7.8478171704519598e+05  8.8053534416641865e+05  4.2156956609238719e+05  4.5187038720738824e+05  1.0691336796185342e+06  5.9850035667367629e+05  6.1089286247963528e+05  6.4595860298301955e+05  5.4402309487604001e+05  8.0218151498448721e+05  7.5928043121216306e+05  1.0588777463836828e+06  1.8847153972547982e+05  5.6773845787824539e+05  6.2459995639503375e+05  6.0194165319435031e+05  6.2981007597230189e+05  6.1288786034151190e+05  8.8799910258189600e+05  6.6532663305179647e+05  6.5391931142314104e+05  1.0531589526215065e+06  1.0073675192339667e+06  9.1206297872774056e+04  4.8812515343961958e+05  7.1255809763009474e+05  9.3850538623350905e+05  8.1985631571748748e+05  1.6262649494798323e+04  7.7740321038303804e+05  2.8624204055301938e+05  8.9712617593621835e+05  8.3324715624868462e+05  8.4791784518307820e+05  8.9265658934983250e+05  2.3748057428799904e+05  3.9300204986118717e+05  4.0554475892401859e+05  4.7577036785009876e+05  9.9147410752451594e+05  7.6461486064292483e-02  2.6404352321260481e+05  1.0301388977332015e+06  1.2203037883293135e+06  1.2724725635131404e+06  1.2235141283116429e+05  1.1758654082308190e+06  1.1356181466287577e+06  8.5348965216751676e+05  1.0407721391597813e+06  7.6951290880392806e+05  2.9978365678151848e+05  6.9154681469717249e+05  5.1040171777389460e+05  5.3156185702116147e+05  9.4233541595258878e+05  5.4431877302005515e+05  8.1117492839621182e+05  3.7051426402362419e+05  1.2405113502426455e+06  2.5127872166550103e-02  5.2794170929626780e+04  1.5739421240845515e+05  3.3520557409015298e+05  4.4066663597384474e+05  1.0884708841239561e+06  1.5960907540808120e+05  8.3699504017531843e+04  5.2068258506361715e+05  1.0363721167489941e+06  6.8232817884325632e+05  2.4561387998937222e+05  2.5035032976665709e+05  6.3477275927537039e+05  6.5173518082425091e+05  4.8268275097646966e+05  1.7915034631272523e+04  2.1441170328053800e+05  8.8740400087682286e+05  3.8864012009518268e+05  4.1473308776341568e+04  4.1240002210097230e+05  3.0374557385669567e+05  2.9047143892167840e+05  1.0844214134227238e+06  1.8585841421952532e+05  4.6468646860632295e+05  4.0330191942147957e+05  1.1222868802715996e+06  1.1830423209248336e+06  1.1483440396827578e+06  3.9597275554048357e+05  7.0258974806822359e+05  4.3027309346504725e+05  3.1422656486025493e+05  3.0981731550272519e+05  2.8742509452113084e+05  1.0136054426255616e+06  6.0223512765217049e+05  7.5834866386254411e+05  5.0437830562272348e+05  9.3497535487544967e+05  5.7531019691163371e+05  4.5343986836639483e+05  5.4018880736951751e+05  7.2053003402346210e+05  8.2037053613163554e+05  8.7015107575463818e+05  7.2761879937683593e+05  5.9216016204661166e+05  3.7445324157782321e+04  9.2147306597866025e+05  2.8068475418781117e+05  1.0082630987245216e+06  5.2157709573434707e+05  6.0858429943872686e+05  7.3546829023100052e+05  1.5559146882558140e+05  2.1834192295885624e+05  5.9818044942312012e+05  9.9053055692678050e+05  8.5942156189478014e+05  1.0616814995378095e+06  1.1050323833323412e+06  1.0323677633853033e+06  6.7678839895510406e+04  1.2091639495759704e+06  4.5008666649744083e+05  4.2237723760972585e+05  5.8354018633661955e+05  1.0040728035556085e+06  5.5257469939898583e+05  5.7770989074881678e+05  6.6749606085550983e+05  1.0179677529273381e+06  6.2876205944632948e+05  1.5796773595278259e+05  9.1961367228860606e+05  1.4506007161211133e+04  1.1305475372627878e+05  3.7504333111628504e+04  1.1754781794535040e+05  4.9906244715949451e+05  2.2148513447273080e+05  7.8468057364103070e+05  3.7472672623091255e+05  5.3495199092374777e+05  6.7053160655354685e+05  8.1860149564571434e+05  5.8459844607417239e+05  5.6589423421869823e+05  3.1461407785539376e+05  4.7639495831048914e+05  5.3824077862433880e+05  5.4849619470957434e+05  9.2650515525111777e+05  5.4537773418402264e+05  1.6069616289146082e+05  6.5593885400789499e+05  8.2176609784936765e+05  9.0095051923911273e+05  1.1599276054643739e+06  6.5878787414527044e+05  8.9798455906404892e+05  3.7432600721252913e+05  6.8723861201274709e+05  7.0405397490691917e+05  8.5667055424150638e+05  8.1900857271981915e+05  7.2230015917629865e+05  2.0579851942495076e+05  5.2678422981848847e+05  5.0230469126678235e+05  3.4408484120848810e+05  8.8288584549626918e+05  9.1330913223590457e+05  6.4249540410142415e+05  4.9161921413449722e+05  7.8807915499543294e+05  1.0770524102209536e+06  6.8046536708839529e+05  6.5169285175691813e+05  7.6300037376077846e+05  7.0369877692981716e+05  3.4003962335832382e+05  5.1580987054914306e+05  6.7726239861262485e+05  6.7576822937167250e+05  2.9141126939445443e+05  3.1500372267806460e+05  8.9633394750900625e+05  9.4295776995539770e+05  9.0964976230510266e+05  3.6717983223972865e+05  5.7851100712392048e+05  1.3990983908147589e+04  3.9568045710516116e+05  3.1428558585860208e+05  3.1098499604471843e+05  9.4293916076973523e+05  2.9337853067560680e+05  3.6401952622925525e+05  5.2679502669999900e+05  5.4010145380747202e+05  5.5510931457402429e+05  5.0429416025745322e+05  4.8006409480856353e+05  6.1104640552447608e+05  6.3821646224402043e+05  7.0398137692488020e+05  5.3862158873184613e+04  5.6292998452698358e+05  5.5566588012407988e+05  5.3496281547508272e+05  6.4158271709517692e+05  6.3317616542748222e+05  6.6097201811157016e+05  3.3771255485981406e+05  2.1183934296386127e+05  2.0198617221639084e+05  1.7897941747000322e+05  6.1533453757762641e+05  9.8756766096154391e+05  2.3920174199937284e+05  1.6288891715255956e+05  7.6463179618609743e+05  4.4060138013117301e+05  9.0252708606957528e+05  2.6082770920977514e+05  3.4163618073916307e+05  6.4876786934804998e+05  2.0502435219331458e+05  6.2929412286010815e+05  7.4773399505065347e+05  7.3160239937240700e+05  6.1082391674357536e+05  2.3426573790623891e+05  9.1064626786086871e+05  9.2533959085707215e+05  8.4141155617762677e+04  5.7292648288292449e+05  6.8192092989127873e+05  5.1636144588352035e+05  6.9342510889054462e+05  8.7746918150781957e+05  8.3366296089344178e+04  7.8873998076420685e+05  7.7459299042573757e+05  7.5418014945657982e+05  7.5516413131111511e+05  6.8940181074440232e+04  4.9146971326813154e+05  6.4892961152815039e+05  6.6975407012194733e+05  4.1729439137055998e+05  7.3216340447699581e+05  9.8876546626614791e+05  1.0356550378096766e+06  9.3327006158132548e+05  5.1239991243768920e+05  5.0502178250225517e+05  1.7990125689613898e+05  1.6452868349934669e+05  6.6483144882560489e+04  1.1871504952589434e+05  6.9609208206743409e+05  1.0130065383440176e+06  2.9340939869746851e+05  3.8316483548688062e+04  7.9961659750196058e+05  9.2346205108925211e+05  7.8459893270701345e+05  1.1143098565136441e+06  4.6457754055230669e+05  4.8605089619250008e+05  2.5359402922839890e+05  1.0514946584169203e+06  6.5681338389409089e+05  4.1814803095709684e+05  9.7977250182519108e+05  9.3812447926206910e+05  9.6131460702460411e+05  7.7114848182928306e+05  6.9579383049211977e+05  3.1885675157926569e+05  1.0174588043635634e+05  4.1681892083812982e+05  3.9865003882237605e+05  7.1057506837160466e+05  6.8791274190347176e+05  8.8329525535273296e+05  7.8945806540603028e+05  3.3960815019023587e+05  5.0189549074668990e+05  6.3062894492981443e+05  7.4496483400470589e+05  4.6114260618945910e+05  6.7842541214057582e+05  8.9447734649745689e+05  1.7715621944753156e+05  1.1586225133131316e+06  1.8777909712162334e+05  8.9325344101509766e+05  4.3671889325101813e+05  7.4174918209451193e+05  5.0822423408191768e+05  9.6755522342395433e+05  9.6185851329907717e+05  9.8887627585815627e+05  9.1176493390948873e+05  5.8514816612257669e+05  5.1866005469589628e+05  8.4528417669479223e+05  9.1077616130365035e+05  9.4021422767343663e+05  6.3854408631797635e+05  5.7243312224409590e+05  5.6927523879695137e+05  9.9012307256943942e+05  6.7881320581095060e+05  2.3617709608381020e+05  7.6417469599934795e+05  7.0849577401199448e+05  8.6672090294282592e+05  3.3012484766461886e+05  3.2478653112734051e+05  1.0949092309840447e+06  9.5739472748231038e+05  5.8541077422911464e+05  6.8065937888054783e+05  5.4073904841399984e+05  5.1573653978997661e+05  9.1514708995217213e+05  4.8853030915848794e+05  9.8074585721438075e+05  2.9074943860005551e+04  1.1404435427485441e+06  5.9557674937390722e+05  4.7167363993258378e+05  4.9286906386540568e+05  4.4044605457584438e+05  2.6477850953167083e+05  2.5526391751008492e+05  2.3631657474905829e+05  6.9389653469830868e+05  5.2709518231647380e+05  6.4224656302372389e+05  4.0050454789518093e+05  9.5300156722336018e+04  7.5655462612131226e+05  2.8078516546532042e+04  4.0268232253975402e+04  6.4499727575863944e+05  6.5399804452898842e+05  6.3148427790016029e+05  5.9659286988154205e+05  6.5482504499020299e+05  2.7438989147098124e+05  3.9193767082718434e+05  1.1580774798738922e+06  2.1704267390891488e+05  8.1739606228365400e+05  1.3070889239120889e+05  8.6718990170579939e+05  8.4568926450416376e+05  7.8154515506164019e+05  4.4409371768549003e+05  1.8842570813069414e+05  7.2627842105670119e+04  4.3503864703802428e+04  8.5691662579498277e+05  7.4940113418560661e+05  3.6417845389625744e+05  3.3419518976399698e+05  7.3157161668341607e+05  8.8636413824499084e+05  8.3662684153152222e+05  8.1467753770320734e+05  6.2274616975179070e+05  9.4735806429228920e+05  9.1594083044308564e+05  9.5422243646726909e+05  9.9260017912874080e+05  9.9216493526528764e+05  8.9798516541489202e+05  1.0165583220054160e+06  9.4687949221074220e+05  1.0760191296499773e+05  1.0961163176271053e+05  9.1799050923867529e+04  1.4609400677587992e+04  4.4093899744864809e+05  4.3328086990010471e+05  4.5142716316217463e+05  8.4571390290065843e+05  8.5760691085722996e+05  8.4709803313792427e+05  7.4705800640840712e+05  4.3858634197933960e+05  6.6948595365374663e+05  8.0362834185509861e+05  1.0859857781538313e+05  2.4744383667548327e+05  1.5971846645276234e+05  1.0614840925546451e+06  6.5874886698215050e+04  3.5578584422813542e+05  2.4615435185463718e+05  4.9193828333302867e+05  3.6376330527431896e+05  3.8355546503724891e+05  4.4265562346187689e+04  3.6285108696158463e+05  8.1671489641317562e+05  9.9806013143645716e+05  1.2185135360947001e+05  1.3588179486733748e+05  1.3213222066793602e+05  6.8311893573104893e+05  5.6713395324891538e+05  2.9712445274959126e+05  5.8758934022270003e+05  9.2394098666659731e+05  1.3031392804643433e+05  6.0785961013091321e+05  6.2287896940647485e+05  2.26856468970932