<?xml version="1.0"?>
<VTKFile type="UnstructuredGrid"  version="0.1"  >
<UnstructuredGrid>
<Piece  NumberOfPoints="1981" NumberOfCells="3668">
<Points>
<DataArray  type="Float64"  NumberOfComponents="3"  format="ascii">-2 0.5 0  -2 0 0  -0.5 0 0  -0.4968561049466213 -0.05598223805165387 0  -0.4874639560909119 -0.1112604669781569 0  -0.4719416651541838 -0.1651395309775835 0  -0.4504844339512096 -0.216941869558779 0  -0.4233620996141421 -0.2660160382576682 0  -0.3909157412340148 -0.3117449009293669 0  -0.3535533905932738 -0.3535533905932737 0  -0.3117449009293669 -0.3909157412340148 0  -0.2660160382576683 -0.4233620996141421 0  -0.2169418695587791 -0.4504844339512095 0  -0.1651395309775836 -0.4719416651541837 0  -0.1112604669781573 -0.4874639560909118 0  -0.05598223805165402 -0.4968561049466213 0  -9.184850993605148e-17 -0.5 0  2 -0.5 0  2 0 0  0.5 0 0  0.4968561049466213 0.05598223805165393 0  0.4874639560909118 0.1112604669781572 0  0.4719416651541838 0.1651395309775835 0  0.4504844339512096 0.2169418695587791 0  0.4233620996141421 0.2660160382576683 0  0.3909157412340149 0.3117449009293667 0  0.3535533905932738 0.3535533905932737 0  0.3117449009293668 0.3909157412340149 0  0.2660160382576683 0.4233620996141421 0  0.2169418695587791 0.4504844339512096 0  0.1651395309775837 0.4719416651541837 0  0.1112604669781572 0.4874639560909118 0  0.05598223805165384 0.4968561049466213 0  3.061616997868383e-17 0.5 0  0.1398708344106534 0.05418624992807294 0  0.15 0 0  0.1398708344106534 -0.05418624992807295 0  0.1108513375830988 -0.1010543465469837 0  0.06686075336648065 -0.1342744937032594 0  0.01384025391949536 -0.1493601264442552 0  -0.04104944851081246 -0.1442738464759228 0  -0.09039519545688858 -0.1197025840920358 0  -0.1275325703594421 -0.07896482443160337 0  -0.1474459649525853 -0.02756242767248552 0  -0.1474459649525853 0.02756242767248555 0  -0.1275325703594421 0.07896482443160341 0  -0.09039519545688844 0.1197025840920359 0  -0.04104944851081243 0.1442738464759228 0  0.0138402539194953 0.1493601264442552 0  0.06686075336648074 0.1342744937032593 0  0.1108513375830989 0.1010543465469836 0  -1 0.5 0  1 -0.5 0  -1.25 0 0  -0.5 0.5 0  1.25 0 0  0.4999999999999999 -0.5 0  -1.5 0.5 0  1.5 -0.5 0  -0.875 0 0  0.875 0 0  -1.625 0 0  1.625 0 0  0.6875 -0.2500000000000001 0  -0.6875 0.25 0  -2 0.25 0  1.75 -0.5 0  0.2499999999999999 -0.5 0  -0.3583969912126916 0.25 0  0.3749999999999999 -0.25 0  -1.0625 0.21875 0  1.0625 -0.21875 0  -1.75 0.5 0  -1.25 0.5 0  -1.375 0.25 0  1.4375 -0.21875 0  2 -0.25 0  1.25 -0.5 0  1.7375 -0.2375 0  -1.7375 0.2375 0  0.75 -0.5 0  -0.75 0.5 0  -0.25 0.5 0  -0.1570377317087672 0.3153742794659282 0  0.1249999999999999 -0.3338777090152827 0  -0.8826650943396226 0.3263561320754717 0  0.8826650943396227 -0.3263561320754717 0  1.25 -0.1897321428571428 0  1.4375 0 0  -1.4375 0 0  1.0625 0 0  -1.0625 0 0  -0.6875 0 0  0.6875 0 0  1.8125 0 0  -1.8125 0 0  0.3263011380546194 -0.06940056902730968 0  -1.554017857142857 0.1790178571428572 0  0.08847100915780901 0.3109433440851622 0  -0.2412983234264066 -0.2156373655531345 0  -1.625 0.3744047619047619 0  1.625 -0.3744047619047619 0  0.2743272717766799 0.1698562554772697 0  -0.3279338175957848 0.06764246763930631 0  -1.863068181818182 0.3630681818181818 0  2 -0.375 0  1.875 -0.5 0  -0.05442366733490933 -0.3203147637646457 0  1.321986607142857 -0.3448660714285714 0  1.125 -0.5 0  -1.209821428571429 0.3236607142857143 0  -0.5229484956063458 0.1781011282952406 0  0.9067445847815293 -0.1625224987586892 0  -0.8335714777578845 0.1642411083184135 0  -1.237063437253354 0.1627182813733228 0  -0.4947697009489606 0.3378596801347012 0  0.53125 -0.171875 0  0.5156249999999999 -0.3359375 0  -2 0.125 0  1.873225308641975 -0.1497685185185185 0  0.2341337966231563 -0.1911191776024666 0  -0.625 0.5 0  1.587453076345555 -0.2288757784711196 0  1.8125 -0.3654761904761905 0  -0.3326862624810256 -0.08869875963335262 0  -0.375 0.5 0  1.174048204529175 -0.319244854540162 0  -1.067618031042359 0.3674567846760797 0  -0.96875 0.109375 0  1.481463366596639 -0.3565498074229692 0  1.023503306098383 -0.3576535124663073 0  -0.2265388519390893 0.1866542405407749 0  0.625 -0.5 0  -1.852445652173913 0.1432065217391304 0  -1.375 0.5 0  -1.479101577239454 0.3541992113802732 0  0.2708871299591885 -0.3541935649795943 0  1.520204106978579 -0.109375 0  0.78125 -0.1026731411563172 0  -0.3125 0.3785994323952442 0  0.3749999999999999 -0.5 0  1.141568346088435 -0.109375 0  1.358431653911565 -0.109375 0  1.668712727161379 -0.1246887081867154 0  -1.673050595238095 0.1226339285714286 0  -1.34375 0 0  -1.431523109243698 0.1313182773109244 0  -0.7546231943577876 0.3660317014105531 0  -0.6233296454587935 0.3645528204344609 0  0.7546231943577878 -0.3660317014105531 0  0.6537002726710706 -0.125 0  -0.6441338591766993 0.125 0  1.375 -0.5 0  -2 0.375 0  -1.875 0.5 0  1.625 -0.5 0  -1.625 0.5 0  0.875 -0.5 0  -0.875 0.5 0  0.1249999999999999 -0.5 0  -0.125 0.5 0  2 -0.125 0  -1.125 0.5 0  -1.354082022940739 0.375 0  -0.03500388138134332 0.2732363193989585 0  0.3955099577726473 -0.3752808566622692 0  0.3596026196703111 0.0631070919012526 0  -0.0625 0.394061918116807 0  0.6342080192637126 -0.3582597885274255 0  -1.123666900137815 0.109375 0  -1.744588744588745 0.3803841991341991 0  0.2210084381421171 0.2925777566973838 0  0.8072251313743133 -0.2315819627814412 0  -0.1814335426834733 -0.3282792760620681 0  -0.9356634513979559 0.2218154628239019 0  0.4183753556420685 -0.1414382112841371 0  -0.1238894550978499 -0.2292394949250368 0  0.96875 0 0  1.013652292192466 -0.1102204462032291 0  -0.4393328341626322 0.09834605222123384 0  1.882206434331873 -0.2686982850037661 0  0.1426699461850768 0.2146575767791519 0  -1.886304127069339 0.251758104550396 0  0.2495743011762567 0.06264742837969955 0  -0.78125 0 0  0.04042933102838756 -0.2590839715717854 0  -1.53125 0 0  -0.5823692714154002 0.2663576540687616 0  -0.2594008044921133 0.2871583817002197 0  -0.9375 0.4157678007976423 0  0.9696186653311423 -0.2675997292662616 0  -0.7942971416386473 0.2646257048857303 0  0.06249999999999992 -0.4169388545076413 0  0.1874999999999999 -0.4169388545076413 0  -1.562839467699977 0.2864000626355251 0  -0.1875 0.4157529178973974 0  -0.1223698320396133 0.2179970721626365 0  1.770639498024741 -0.1399156735731578 0  0.9367002721196375 -0.4157324987180338 0  -1.90625 0 0  -0.2298618769854927 -0.08904896555277285 0  0.1397131066802196 -0.232031643549068 0  -0.4375 0.420861596936145 0  -0.3483554784186823 -0.1925292675214375 0  0.59375 0 0  -1.327632151430252 0.1057660692693074 0  -0.9830051201906395 0.3115204496273563 0  1.90625 0 0  1.236354269160391 -0.3993990952861421 0  -1.1875 0.4214935578661845 0  0.5625 -0.4247705455161483 0  -0.7349377422908023 0.1635199768201956 0  -1.583328550170068 0.08705835459183674 0  -1.640104497493491 0.2259991665335075 0  -1.467109316827997 0.2210671404637805 0  0.5896070530325394 -0.2690578560650788 0  0.3266472067106532 -0.167734762534917 0  -0.59375 0 0  -0.546875 0.08448914438556519 0  1.71875 0 0  1.156078290691277 -0.2031315651260504 0  1.337704613095238 -0.2433035714285714 0  1.236312294597949 -0.09486607142857142 0  0.1642123379155914 0.3701207892454864 0  0.2345507206108115 -0.04384512844718241 0  -0.4048861533022036 -0.02273791864794379 0  0.03798857341016919 0.3979165301900267 0  -0.4006523628802168 0.334179001454817 0  -0.1135990210174155 -0.393340785880617 0  1.906775738056482 -0.3598876272511091 0  1.720393990929705 -0.4044642857142857 0  -1.71875 0 0  1.15625 0 0  0.78125 0 0  1.53125 0 0  -0.96875 0 0  1.34375 0 0  -1.15625 0 0  1.142828909845958 -0.4078056758504979 0  0.40697192225457 -0.01923608979840619 0  -1.767708120728825 0.08966855818957545 0  -0.6882384924227143 0.4308047125515967 0  -0.3636785153797087 0.1553944795036722 0  -0.2291274285977749 0.08616080495998404 0  -0.281012338688557 -0.01202669255906096 0  0.3108677056378212 0.2586754570559801 0  -1.151751953043632 0.196872287087452 0  -0.5625 0.4330368698813529 0  0.6875 -0.4328910527173583 0  1.405021000845949 -0.3057191080886871 0  0.546875 -0.08025568181818182 0  0.3713523302229579 0.1599284134935842 0  -1.12196127795563 0.2911449911382941 0  -1.276991293863022 0.2522534749828799 0  1.255195006158927 -0.2798057638555942 0  -0.8388532729558951 0.4114132763440825 0  0.8388532729558953 -0.4114132763440825 0  -0.4557763550657601 0.2486174768248819 0  0.2049883534781638 -0.2934473685517857 0  0.3226059585583683 -0.4273378498573185 0  -1.426982449282418 0.4270508114904024 0  1.397702183984896 -0.4056170514003312 0  0.05467855045156804 0.2285245978493705 0  -0.272823163096586 -0.3046204408381326 0  -0.02656096412551515 -0.4126877256833236 0  -1.807235369718798 0.2933328120993839 0  0.1906985117418444 0.1399478964461678 0  -1.688085622354259 0.3115694793217502 0  1.659329587961023 -0.2879395206246994 0  -1.5625 0.437202380952381 0  1.546313524296827 -0.4210926184041992 0  -1.813279560389256 0.4363923695021056 0  -1.926524548924358 0.4265245489243581 0  -0.1751061200004134 -0.1578066000831913 0  0.2891187728554643 -0.268298186700636 0  0.4721679687499999 -0.2490234375 0  0.7276683718449491 -0.1720688736051095 0  0.4744973194747868 -0.4152356216385488 0  0.9322020604693165 -0.07914563824612769 0  -1.275602471792197 0.4154857864535745 0  -0.828125 0.07552171441918698 0  1.3125 -0.5 0  -1.931646474339171 0.178059096704675 0  -0.7167268019830385 0.08016211756451477 0  1.060414578698922 -0.4368616551407768 0  -1.6875 0.5 0  1.9375 -0.5 0  1.739833210773432 -0.3220974693894793 0  -2 0.3125 0  -1.207440692409131 0.07848980221212992 0  -0.04055821595704934 -0.2377097412335854 0  0.1922531441870086 -0.1190381071624572 0  1.509237778147088 -0.2717758217431455 0  0.8901922386429052 -0.2437760747352658 0  -1.498530569603453 0.07867879855510211 0  0.9849923856958628 -0.1870513965806273 0  1.515605916195201 -0.1906351698786736 0  1.439317880445072 -0.08458133750179306 0  1.932491348856277 -0.2050969650933771 0  1.828075655121533 -0.08087981225769847 0  1
[...]
<PointData  Scalars="f_45"> 
<DataArray  type="Float64"  Name="f_45"  format="ascii">1.1733624000188520e+15  1.0094550125966102e+15  6.4004807618720575e+14  6.1729280266041875e+14  6.0418717501566800e+14  5.9388459056387638e+14  5.8492448577424162e+14  5.7672420667059950e+14  5.6900940107560925e+14  5.6162475592231219e+14  5.5443068759192700e+14  5.4734954054799025e+14  5.4026086053277506e+14  5.3313822567895069e+14  5.2581488058806894e+14  5.1828192165450812e+14  5.1010969699209219e+14  4.5889824743756771e+07  -4.6790091258422971e+07  4.4388132258031081e+14  4.6758835570599581e+14  4.8080423925495450e+14  4.9119738249629838e+14  5.0020185354481700e+14  5.0839608862642812e+14  5.1604129040453994e+14  5.2349012384524650e+14  5.3066835521479631e+14  5.3774722259253806e+14  5.4482145277137381e+14  5.5190044614543706e+14  5.5912099817090900e+14  5.6664264282818162e+14  5.7470713207696238e+14  5.0826789913417562e+14  4.9526533012424406e+14  4.8929022207819556e+14  4.9110438094286794e+14  5.0046415038246700e+14  5.1504116319618525e+14  5.3243663739067262e+14  5.5118519229549312e+14  5.6902724137216200e+14  5.8416047481646388e+14  5.9372514155159962e+14  5.9580834619203475e+14  5.9010629236290625e+14  5.7792782919432025e+14  5.6162621379151806e+14  5.4348028867806512e+14  5.2482683558268544e+14  7.9972281107255225e+14  2.7916459447955453e+14  8.6588141435519175e+14  6.7179362726106925e+14  2.0984000751533631e+14  4.1094712127685194e+14  9.3842750485149000e+14  1.3980376118494425e+14  7.6415107368669250e+14  3.1572237923213738e+14  9.6022974191929850e+14  1.0487826795262972e+14  3.6664962448269506e+14  7.1486021709976188e+14  1.0382763855119411e+15  6.9908351195773070e+13  4.6536920542487650e+14  6.3526245377447200e+14  4.4510348545084225e+14  8.1591468657920825e+14  2.6223353126139694e+14  1.0232024561865344e+15  8.6768096011762612e+14  9.0058918773794050e+14  1.5730937511589588e+14  -1.1568691278285456e+08  2.0963529753355422e+14  7.3408442582500250e+13  9.9564339908632038e+14  3.4737198410827369e+14  7.3352012827672138e+14  6.1870068571950862e+14  5.9937066727466850e+14  4.9077561307414344e+14  7.6783627990487662e+14  3.1197256310292519e+14  2.0977507810673506e+14  1.5733455802710084e+14  9.1493604883557238e+14  2.6250517108425688e+14  8.1546374105352338e+14  7.1078225515517500e+14  3.7099323736286744e+14  5.2437084014993906e+13  9.9541244965852612e+14  4.6908359329497850e+14  9.4660716598641862e+14  5.5463096965589700e+14  5.6376599482328938e+14  9.7419914257937138e+14  1.0486198772920908e+14  5.1086296872410062e+14  6.1556023868836588e+14  1.0517762115143690e+15  8.3566102663686752e+07  3.4954756044773004e+13  5.2396665777637294e+14  1.8957014610888631e+14  2.4447030291608516e+14  8.5623338653026100e+14  6.6875694889281612e+14  3.0617467244856288e+14  7.5338086340084025e+14  8.6283098618280788e+14  6.6853261487222050e+14  4.1237354733516288e+14  4.0934737926386469e+14  1.0160472690789364e+15  3.5453594789557703e+13  4.7470545143051406e+14  7.0179047821056262e+14  1.1537033387209441e+14  5.2432669381534969e+13  5.9355347367948475e+14  6.4404820504877538e+14  2.3090741686587362e+14  8.1777911614716812e+14  7.9010662801443812e+14  1.4499406546701625e+14  2.7281093176037744e+14  6.0851961043193975e+14  3.8005609666553331e+14  1.0075887726025079e+15  9.0244392603405875e+14  9.3083355648217388e+14  4.6276184736010206e+14  1.3418932534087133e+14  3.4239386443667644e+14  6.2998553524186588e+14  4.3942798625812950e+14  2.4021710500575675e+14  1.7945449945702731e+14  9.2649615564691297e+13  9.7314368195398438e+14  8.9066001828108000e+14  9.1417912448930525e+14  7.3413616484283788e+14  7.0035762044009825e+14  3.4675076209912438e+14  3.7938399484399931e+14  6.9987032885480800e+14  1.7473446867107469e+14  1.0867813734038856e+15  1.0932761983801490e+15  1.0485920784387389e+14  9.7726629590989912e+14  3.1356321384933944e+14  7.6631527109225138e+14  4.8903343601765781e+14  5.9548738684328162e+14  3.0105891367442340e+07  8.3351563076723312e+14  8.9607402600832762e+14  5.7604914208266125e+14  4.3628608511266488e+14  4.8380137175409656e+14  5.8368321367811450e+14  3.7884565575495650e+14  8.3213386840109350e+14  1.0134362493631071e+15  5.3261770396257000e+14  3.3365686749295731e+14  5.4381055809706425e+14  7.8156459188070575e+14  4.4317310067037469e+14  5.4342690479671725e+14  2.8899714486729838e+14  2.7617915161951950e+14  6.4096950489832612e+14  3.2940814963602418e+13  5.3667555815124250e+14  1.0288611314904280e+15  4.9763810227787369e+14  7.3791809968185512e+14  5.0813293684129056e+14  9.3830291643661575e+14  6.8781223348237000e+14  6.1750616007617800e+14  7.8286101262773475e+14  2.8806963313764475e+14  7.4367116285183025e+14  5.0067706578132325e+14  4.7791851333978831e+14  9.5255017356492888e+14  6.0639570934409512e+14  5.9199040091417300e+14  6.4143068630935797e+13  2.9673266688494138e+14  1.0057408492478834e+15  5.8079920563989288e+14  4.8964220313638625e+14  6.5709277776973912e+14  5.7957442505173675e+14  4.0153802175567900e+14  8.8671598202665238e+14  7.9475661201328162e+14  2.6218353079740426e+13  2.1346432176861300e+14  8.5045862049295975e+14  3.9617905470394019e+14  7.2620881301701950e+14  9.5156011517352925e+14  9.7043306197113000e+14  9.2491507833814800e+14  3.9258739702847819e+14  4.5987991022644775e+14  6.8139220422308700e+14  6.6915518443289100e+14  7.8656808603879734e+13  2.3605552136506475e+14  1.8521329831404041e+14  2.1365758186678003e+14  5.4665395249448244e+14  4.8456134999832906e+14  6.1469770101226550e+14  5.6691922787916988e+14  6.4726293599449375e+14  5.2986125242369138e+14  2.6069490938426914e+13  7.8187631621201906e+13  9.7972777731410500e+14  2.3613912101875353e+14  3.4289750343070456e+14  1.3110342205300117e+14  7.8993954494964188e+14  1.8357689207116041e+14  8.4078191489190625e+14  2.3954071324750681e+14  4.6196832473814262e+14  9.9055945789522738e+14  7.1746093080209225e+14  6.3049989304211350e+14  6.0363763294166400e+14  5.9875832191458775e+14  5.1795833040326606e+14  8.3997992129592125e+14  6.8623686152173512e+14  3.6410811623586962e+14  1.6637266471439219e+14  4.1425086564979044e+14  4.9836674707901950e+14  8.3226285907648450e+14  8.7408878887143700e+14  2.0826622880543606e+14  7.5657924149369538e+14  3.2359669873426056e+14  6.5625545219857538e+14  4.7675593734443250e+14  4.5101419789565469e+14  9.1691575220003388e+14  1.6839885182104075e+14  5.5571689268603738e+14  5.5788740067555681e+14  5.1571571316780381e+14  1.0201948533788226e+15  5.1818220137918675e+14  9.8923750780012800e+14  9.5266659469050875e+13  9.5680745252613138e+14  1.2685948667749142e+14  1.0481441811658642e+15  1.1024518923619304e+15  5.6175252053140600e+14  4.6168419185656119e+14  4.2314674540553006e+14  3.5691110920289456e+14  4.1756060939788519e+14  2.9927998764777088e+14  8.7459092493195925e+14  7.5129628279406900e+14  1.9219041650820406e+14  1.0204406433821238e+15  7.1988361357083438e+14  2.6244789771460322e+14  9.9890484014834738e+14  1.7477429129999668e+13  7.2753714663110984e+13  1.0576908326326345e+15  8.5460100833373175e+14  5.2586992667351319e+14  4.8362781069321825e+14  1.3723892704425058e+14  3.1036495618455938e+14  9.3071301631950088e+14  2.8404801702503656e+14  1.3546786933878889e+14  1.5682165473706369e+14  1.8878983502476059e+13  4.8080788765850836e+13  5.1537684604707805e+13  5.0531981686597550e+14  5.9709032191461625e+14  3.8477539027236950e+14  1.0099802966656452e+15  5.7823582153045012e+14  2.0705401236029824e+13  1.0110558509183869e+15  1.0093189487908200e+15  1.8961292358779016e+14  2.5156505611627566e+14  8.8323901708879050e+14  8.1124438676662850e+14  1.2384996029847630e+14  6.8990653516702838e+14  8.7776116537677838e+14  3.2151805669523356e+14  4.8265616631347575e+14  4.3927319777050569e+14  9.0301216309065888e+14  5.3491534530153023e+13  5.9816266883564812e+14  1.1798937860296931e+14  6.1560338131653100e+14  6.4987702482208675e+14  9.8939476736268938e+14  4.4866332884428700e+14  9.3935460830743609e+13  2.4638009069356150e+14  1.1431159937037998e+14  7.6049911480646188e+13  8.0357056678674500e+14  1.0005872181656638e+15  3.8239597501132258e+13  5.9284775168794812e+13  4.2711797248992075e+14  7.6165144455709188e+14  6.1530819154009750e+14  9.5203104681173412e+14  9.1839146919538450e+14  6.2097734839632475e+14  6.0498244301167312e+14  1.0525785021364711e+15  8.3788241608261525e+14  7.7355107094632425e+14  1.4756407633679331e+14  7.7220459918137438e+14  5.7333368998635800e+14  8.2294699812267238e+14  3.3293206468042050e+14  2.9217905862783719e+14  2.6860122717684488e+14  8.3566102663686752e+07  8.0276361287049425e+14  -4.9293557153901577e+07  1.9520007164005381e+14  4.7333844444342131e+14  2.2706441971018128e+14  8.1338612944437050e+14  9.8670002603564738e+14  6.1982927439842375e+14  8.4890739770686300e+14  5.9308070075207225e+14  5.2425649817550356e+14  3.2762053608196688e+14  3.5659048405432688e+14  7.9561400480448088e+14  3.9286368947091600e+14  5.3696618116047000e+14  1.8934669976596973e+13  4.7194249398899462e+14  6.3108868917595600e+14  4.9769481690858769e+14  6.4160402013479750e+14  6.3305188220390512e+14  9.3650021219109888e+14  1.8992513877553491e+14  4.6479136313079581e+14  5.6897941153184225e+14  8.7384287901244953e+13  9.5659924881466906e+13  1.6346437951972456e+14  2.4930048849975338e+14  2.5143007045021934e+14  6.8854031829308275e+14  2.2484449290442259e+14  4.9200541144952494e+14  7.5098241056397850e+14  3.4149541782152619e+14  3.6277698452307288e+14  7.3474006213140325e+14  7.2828341719404350e+14  5.4320858324931762e+14  3.4959411159295938e+14  5.6940013177520812e+14  7.0930298635184450e+14  9.9516149937049188e+13  9.5984084006459125e+14  9.6518127217293038e+14  9.0864114603519738e+14  9.3119026033745662e+14  7.1708068060407712e+14  7.0377156296947100e+14  6.8476264844431875e+14  8.7232915915411225e+14  3.9713328774383112e+14  4.3171501894433119e+14  8.9219313404712450e+14  5.5645749048147588e+14  5.6430110372131512e+14  5.8860878572722162e+14  5.2742291755802425e+14  7.3948421043950088e+14  6.7159566282501575e+14  9.7057910826289238e+14  1.7215649485047153e+14  5.0542759591550000e+14  5.5094755561957238e+14  5.3410454597255475e+14  5.4871362499347594e+14  5.3901531204850950e+14  7.9900636785432325e+14  5.9433069102313562e+14  5.8468089629323162e+14  9.1338747460814200e+14  8.9449477095914812e+14  8.8269742736087516e+13  4.8604937741596962e+14  6.3206279103791812e+14  9.7854284066357462e+14  7.0157268326353475e+14  1.5498052884339504e+13  6.7159146572793550e+14  2.7917464467422878e+14  7.4981804997818938e+14  8.2814664537854525e+14  8.2016278693856288e+14  8.4759259976645225e+14  2.2544042159566209e+14  3.8029521437902788e+14  3.9578488328947769e+14  4.5270040665577700e+14  8.1657601499231112e+14  8.5703204405987740e+07  2.6184367402963097e+14  1.0247871161587499e+15  1.1292000258903638e+15  1.1652488661562200e+15  1.2233253831022605e+14  9.5733302340431562e+14  9.2021737035196862e+14  7.1748308096727388e+14  8.5054403936896812e+14  6.5760696463032862e+14  2.9641786045716962e+14  6.0684355436509238e+14  4.7745704953750969e+14  4.8934985119119544e+14  7.8296243796971275e+14  4.9998762736703812e+14  6.8653293541429425e+14  3.6389950633289719e+14  1.0531733031554324e+15  3.0105891367442340e+07  5.2431815309223266e+13  1.5727143695776825e+14  3.3056572719026231e+14  4.2552025733490744e+14  8.8495601925549812e+14  1.4421788306282266e+14  7.8211448502040328e+13  4.7925926433450544e+14  9.3567735611420012e+14  6.0475024512505225e+14  2.2298368355128528e+14  2.2954928441853103e+14  5.7617882068260900e+14  5.8959962948276150e+14  4.5575319743959362e+14  1.6629215773050303e+13  2.0692522360817347e+14  8.2529397534841238e+14  3.6169521027566956e+14  3.9875409205161680e+13  3.9388093848673062e+14  2.7573199483453775e+14  2.6632524061103081e+14  1.0045318755410432e+15  1.7453286429509169e+14  4.3704677986187106e+14  3.7412981809337912e+14  9.9292737253804838e+14  1.0222498996604141e+15  1.0344437923356006e+15  3.7727375572059738e+14  6.2584540282590525e+14  4.0818411989004600e+14  2.9159244389100825e+14  2.8366652444265438e+14  2.6816951688326881e+14  9.8169033995109212e+14  5.3783294563110669e+14  6.8293879510486900e+14  5.0464925134442025e+14  8.9663511636386750e+14  5.3386820710634975e+14  4.2868444973671669e+14  4.9413708302005794e+14  6.4079703819560962e+14  7.4019316719351275e+14  7.7374082115542038e+14  6.5009960156489675e+14  5.5342981243636362e+14  3.5199304987114164e+13  7.9442248335852388e+14  2.5969438718390878e+14  9.4135301544452925e+14  5.0891237716973681e+14  5.6188292714191044e+14  6.5699603249862825e+14  1.4217922194166631e+14  2.0286730826770103e+14  5.3262883966884500e+14  9.9836456246388862e+14  8.3980117492663562e+14  1.0320636477963076e+15  1.0367921001710988e+15  1.0167423359045176e+15  6.1663722200287438e+13  1.0787415418313438e+15  4.2481599523542156e+14  3.9959308845017475e+14  5.2226774984072550e+14  8.6620836094965588e+14  4.9929407768010262e+14  5.1729338329267544e+14  5.9796520574457888e+14  9.5627813751222425e+14  5.8190885398052800e+14  1.4689488253784184e+14  1.0084121113604261e+15  1.3109228462875869e+13  1.1115894560181362e+14  3.4215040557092762e+13  1.1236578675082373e+14  4.7489363715969969e+14  2.1835801859263903e+14  7.3534649249779600e+14  3.6133047818476250e+14  4.8388631410271881e+14  6.0516982571088388e+14  7.6273724961708538e+14  5.4616422154879575e+14  5.3428108683695900e+14  2.9640083384086819e+14  4.4823656682972181e+14  5.0735336740048369e+14  5.0490436063072825e+14  8.5461314469284888e+14  5.2326800456671700e+14  1.5316980577854759e+14  5.7036866786906325e+14  7.8689116790761138e+14  9.1747236790618575e+14  1.0722303900936412e+15  6.0061483520045662e+14  7.8222179865665050e+14  3.5365197272530588e+14  5.8727403146876262e+14  6.0878183562149325e+14  7.5754074487451338e+14  7.2953147648467750e+14  6.3053650443874900e+14  2.0297286714848966e+14  4.8022942056073206e+14  4.6432792445239938e+14  3.3174131215266356e+14  8.8627854916952888e+14  8.7534034947058288e+14  5.6927178193715688e+14  4.5966404049637031e+14  6.9979274885257650e+14  9.6281426350745950e+14  6.0927157869717325e+14  5.8556574383614300e+14  7.0503859414327412e+14  6.2354407673461888e+14  3.2308340416382994e+14  4.8899404658956069e+14  5.8847185745191600e+14  5.7683453169593275e+14  2.7555565358726544e+14  3.0052275555615619e+14  7.7197470085025912e+14  7.9225138666534075e+14  7.6940207436574412e+14  3.3623258620246244e+14  5.1591947409616256e+14  1.3468077215834045e+13  3.7211291515430938e+14  3.0364000431361988e+14  3.0503564373048800e+14  9.4101546146741088e+14  2.8808507550032681e+14  3.4146448763280075e+14  5.1990933094167125e+14  4.9347236543934288e+14  5.0546538739397469e+14  4.7147205504633994e+14  4.4905848545532788e+14  5.6388874369985850e+14  5.9093054471043862e+14  6.2657952987644325e+14  5.0122960668459961e+13  5.0875961036234869e+14  4.9908610295305094e+14  4.8686507057875206e+14  5.8336054961341588e+14  5.7132736994503775e+14  5.8606599495112262e+14  3.1701288165407644e+14  2.0029280553652644e+14  1.9309589980332125e+14  1.6984462820759119e+14  5.5138358987896588e+14  8.3602173188088525e+14  2.3577776472796106e+14  1.6097056366568234e+14  7.2450937308580012e+14  4.1950350102381375e+14  9.8810464384778975e+14  2.5372801231590791e+14  3.1671360470532506e+14  5.9897570889824825e+14  1.9964089029829447e+14  5.5731214931190181e+14  6.5697772524961300e+14  6.4647796400396962e+14  5.4121651439943462e+14  2.2727950336918597e+14  9.4164754708533662e+14  8.0595649492272638e+14  7.7838212755748125e+13  5.1463531754359656e+14  6.1317930965697388e+14  5.1261869276769544e+14  6.1568629505307000e+14  9.2676381389766312e+14  8.2294283017798891e+13  6.8249382637866375e+14  6.6449265136468125e+14  6.5033434210989888e+14  6.5816420004927112e+14  6.4581461661744820e+13  4.9454555678731500e+14  5.9734917512592712e+14  6.0798963413423325e+14  3.9991683986270569e+14  6.4085429358062925e+14  8.5150499213114562e+14  8.5907138316558312e+14  9.9339897883299725e+14  4.7126930608982788e+14  4.6720591498365738e+14  1.7419887488946659e+14  1.5965225022511450e+14  6.4763710837412219e+13  1.0929390073801928e+14  6.1203473581153162e+14  8.4199875213126838e+14  2.8081158183071491e+14  3.5273253739175328e+13  7.7708632071955212e+14  8.3608889807382000e+14  7.1367547307987588e+14  1.0190081702466861e+15  4.3791512146519388e+14  4.5845502437444575e+14  2.4951232267734222e+14  9.8085181360649012e+14  5.9658175025327575e+14  3.8577983988033881e+14  8.8754763511457800e+14  8.7106575803188450e+14  8.6202956509680938e+14  6.7767820543995050e+14  6.2332108783621250e+14  3.1018407625352094e+14  9.1767196316989000e+13  4.0355075394663738e+14  3.8743921970920188e+14  6.2197393173768850e+14  6.0310697721657525e+14  7.8722988568525800e+14  6.7574471951668988e+14  3.0999832886067031e+14  4.9049058249020381e+14  5.5226291583154262e+14  6.6125215298897588e+14  4.3417521837820956e+14  6.0590031249096475e+14  9.7035566893035350e+14  1.7497981886473091e+14  1.0027973130157246e+15  1.8017622490505278e+14  8.6557137868411988e+14  4.1304262557963231e+14  6.7398740340158812e+14  4.7157013813634925e+14  9.8298105561281562e+14  9.2128982730421900e+14  9.1315930945327412e+14  9.5506339296456938e+14  5.2304249663621000e+14  5.0232698323279725e+14  7.4114516080552212e+14  1.0013015516027415e+15  1.0046568606703905e+15  5.8234942416552262e+14  5.4352245306784688e+14  5.3982647362493306e+14  9.7110329925660025e+14  6.0099801514620550e+14  2.1597351872713175e+14  6.7940039869298475e+14  6.3222284275536600e+14  7.4525150691858188e+14  3.1862308030600456e+14  3.1811744009971244e+14  1.0458495259744401e+15  8.9568282840435488e+14  5.4453525493723938e+14  6.0827571707687775e+14  4.8669642845675312e+14  4.7635357242687912e+14  8.9926906607057200e+14  4.5490948670264825e+14  9.3505421258725525e+14  2.8636103227488723e+13  1.0686174515185211e+15  5.5286001858741888e+14  4.5785848026623294e+14  4.6618715921931894e+14  4.1758114367117962e+14  2.4917215420724259e+14  2.3798261707110597e+14  2.2240654677794359e+14  6.2171326850138288e+14  4.8066832009563725e+14  5.5501828901081756e+14  3.7970654456120794e+14  8.6749931450038953e+13  6.6588418011028250e+14  2.6920743598521543e+13  3.9073683906250859e+13  5.6219021644257731e+14  5.6203883109526369e+14  5.7547470779390038e+14  5.2956662872213231e+14  5.9030421594172212e+14  2.4931223522493691e+14  3.5678443281662144e+14  9.7172386139187562e+14  1.9670510504851072e+14  8.0272737954791562e+14  1.1799023075055662e+14  9.0287941477061512e+14  8.5336065677607312e+14  7.5111365195711075e+14  4.1949383594506894e+14  1.7045404002655744e+14  6.5546888633650461e+13  3.9327630756971469e+13  8.7831788610754625e+14  6.9652000357378088e+14  3.2921889103826212e+14  3.0232274903047394e+14  6.6426951910274962e+14  9.4952118357284775e+14  7.0952592001843850e+14  7.1591010212261425e+14  5.6919713007473400e+14  8.2722537936605838e+14  8.2171908789650662e+14  8.4465544207060462e+14  1.0149871524363526e+15  1.0117865640503574e+15  7.5727024922897412e+14  9.9960216581493488e+14  1.0093893874139172e+15  1.0361689783110902e+14  1.0400619946822511e+14  8.6999779103551016e+13  1.4188879550725262e+13  4.1667699254209675e+14  4.0715768223701800e+14  4.3001198204587194e+14  7.2614481712352175e+14  7.2541758324063888e+14  7.7019452703534875e+14  6.6978027360863375e+14  4.2165264470836900e+14  5.9507145911881575e+14  7.2063014138165362e+14  1.0121925914349998e+14  2.3909750293838869e+14  1.5367578287129200e+14  8.8015846176151825e+14  6.0562877108255594e+13  3.2934461953678525e+14  2.2743356179514050e+14  4.5814273968064712e+14  3.5571841289535244e+14  3.7375814591234806e+14  4.3693348635585344e+13  3.5170796000328875e+14  6.9476587312850912e+14  9.6047919456845800e+14  1.1868893495538397e+14  1.3215997165184820e+14  1.3106904463839392e+14  6.1531609426940712e+14  5.1279837424381281e+14  2.8788637199848075e+14  5.4989317019969575e+14  9.8443110068920988e+14  1.2398715207417980e+14  5.3700825237757556e+14  5.4381079327879081e+14  2.17679482715729