<?xml version="1.0"?>
<VTKFile type="UnstructuredGrid"  version="0.1"  >
<UnstructuredGrid>
<Piece  NumberOfPoints="1981" NumberOfCells="3668">
<Points>
<DataArray  type="Float64"  NumberOfComponents="3"  format="ascii">-2 0.5 0  -2 0 0  -0.5 0 0  -0.4968561049466213 -0.05598223805165387 0  -0.4874639560909119 -0.1112604669781569 0  -0.4719416651541838 -0.1651395309775835 0  -0.4504844339512096 -0.216941869558779 0  -0.4233620996141421 -0.2660160382576682 0  -0.3909157412340148 -0.3117449009293669 0  -0.3535533905932738 -0.3535533905932737 0  -0.3117449009293669 -0.3909157412340148 0  -0.2660160382576683 -0.4233620996141421 0  -0.2169418695587791 -0.4504844339512095 0  -0.1651395309775836 -0.4719416651541837 0  -0.1112604669781573 -0.4874639560909118 0  -0.05598223805165402 -0.4968561049466213 0  -9.184850993605148e-17 -0.5 0  2 -0.5 0  2 0 0  0.5 0 0  0.4968561049466213 0.05598223805165393 0  0.4874639560909118 0.1112604669781572 0  0.4719416651541838 0.1651395309775835 0  0.4504844339512096 0.2169418695587791 0  0.4233620996141421 0.2660160382576683 0  0.3909157412340149 0.3117449009293667 0  0.3535533905932738 0.3535533905932737 0  0.3117449009293668 0.3909157412340149 0  0.2660160382576683 0.4233620996141421 0  0.2169418695587791 0.4504844339512096 0  0.1651395309775837 0.4719416651541837 0  0.1112604669781572 0.4874639560909118 0  0.05598223805165384 0.4968561049466213 0  3.061616997868383e-17 0.5 0  0.1398708344106534 0.05418624992807294 0  0.15 0 0  0.1398708344106534 -0.05418624992807295 0  0.1108513375830988 -0.1010543465469837 0  0.06686075336648065 -0.1342744937032594 0  0.01384025391949536 -0.1493601264442552 0  -0.04104944851081246 -0.1442738464759228 0  -0.09039519545688858 -0.1197025840920358 0  -0.1275325703594421 -0.07896482443160337 0  -0.1474459649525853 -0.02756242767248552 0  -0.1474459649525853 0.02756242767248555 0  -0.1275325703594421 0.07896482443160341 0  -0.09039519545688844 0.1197025840920359 0  -0.04104944851081243 0.1442738464759228 0  0.0138402539194953 0.1493601264442552 0  0.06686075336648074 0.1342744937032593 0  0.1108513375830989 0.1010543465469836 0  -1 0.5 0  1 -0.5 0  -1.25 0 0  -0.5 0.5 0  1.25 0 0  0.4999999999999999 -0.5 0  -1.5 0.5 0  1.5 -0.5 0  -0.875 0 0  0.875 0 0  -1.625 0 0  1.625 0 0  0.6875 -0.2500000000000001 0  -0.6875 0.25 0  -2 0.25 0  1.75 -0.5 0  0.2499999999999999 -0.5 0  -0.3583969912126916 0.25 0  0.3749999999999999 -0.25 0  -1.0625 0.21875 0  1.0625 -0.21875 0  -1.75 0.5 0  -1.25 0.5 0  -1.375 0.25 0  1.4375 -0.21875 0  2 -0.25 0  1.25 -0.5 0  1.7375 -0.2375 0  -1.7375 0.2375 0  0.75 -0.5 0  -0.75 0.5 0  -0.25 0.5 0  -0.1570377317087672 0.3153742794659282 0  0.1249999999999999 -0.3338777090152827 0  -0.8826650943396226 0.3263561320754717 0  0.8826650943396227 -0.3263561320754717 0  1.25 -0.1897321428571428 0  1.4375 0 0  -1.4375 0 0  1.0625 0 0  -1.0625 0 0  -0.6875 0 0  0.6875 0 0  1.8125 0 0  -1.8125 0 0  0.3263011380546194 -0.06940056902730968 0  -1.554017857142857 0.1790178571428572 0  0.08847100915780901 0.3109433440851622 0  -0.2412983234264066 -0.2156373655531345 0  -1.625 0.3744047619047619 0  1.625 -0.3744047619047619 0  0.2743272717766799 0.1698562554772697 0  -0.3279338175957848 0.06764246763930631 0  -1.863068181818182 0.3630681818181818 0  2 -0.375 0  1.875 -0.5 0  -0.05442366733490933 -0.3203147637646457 0  1.321986607142857 -0.3448660714285714 0  1.125 -0.5 0  -1.209821428571429 0.3236607142857143 0  -0.5229484956063458 0.1781011282952406 0  0.9067445847815293 -0.1625224987586892 0  -0.8335714777578845 0.1642411083184135 0  -1.237063437253354 0.1627182813733228 0  -0.4947697009489606 0.3378596801347012 0  0.53125 -0.171875 0  0.5156249999999999 -0.3359375 0  -2 0.125 0  1.873225308641975 -0.1497685185185185 0  0.2341337966231563 -0.1911191776024666 0  -0.625 0.5 0  1.587453076345555 -0.2288757784711196 0  1.8125 -0.3654761904761905 0  -0.3326862624810256 -0.08869875963335262 0  -0.375 0.5 0  1.174048204529175 -0.319244854540162 0  -1.067618031042359 0.3674567846760797 0  -0.96875 0.109375 0  1.481463366596639 -0.3565498074229692 0  1.023503306098383 -0.3576535124663073 0  -0.2265388519390893 0.1866542405407749 0  0.625 -0.5 0  -1.852445652173913 0.1432065217391304 0  -1.375 0.5 0  -1.479101577239454 0.3541992113802732 0  0.2708871299591885 -0.3541935649795943 0  1.520204106978579 -0.109375 0  0.78125 -0.1026731411563172 0  -0.3125 0.3785994323952442 0  0.3749999999999999 -0.5 0  1.141568346088435 -0.109375 0  1.358431653911565 -0.109375 0  1.668712727161379 -0.1246887081867154 0  -1.673050595238095 0.1226339285714286 0  -1.34375 0 0  -1.431523109243698 0.1313182773109244 0  -0.7546231943577876 0.3660317014105531 0  -0.6233296454587935 0.3645528204344609 0  0.7546231943577878 -0.3660317014105531 0  0.6537002726710706 -0.125 0  -0.6441338591766993 0.125 0  1.375 -0.5 0  -2 0.375 0  -1.875 0.5 0  1.625 -0.5 0  -1.625 0.5 0  0.875 -0.5 0  -0.875 0.5 0  0.1249999999999999 -0.5 0  -0.125 0.5 0  2 -0.125 0  -1.125 0.5 0  -1.354082022940739 0.375 0  -0.03500388138134332 0.2732363193989585 0  0.3955099577726473 -0.3752808566622692 0  0.3596026196703111 0.0631070919012526 0  -0.0625 0.394061918116807 0  0.6342080192637126 -0.3582597885274255 0  -1.123666900137815 0.109375 0  -1.744588744588745 0.3803841991341991 0  0.2210084381421171 0.2925777566973838 0  0.8072251313743133 -0.2315819627814412 0  -0.1814335426834733 -0.3282792760620681 0  -0.9356634513979559 0.2218154628239019 0  0.4183753556420685 -0.1414382112841371 0  -0.1238894550978499 -0.2292394949250368 0  0.96875 0 0  1.013652292192466 -0.1102204462032291 0  -0.4393328341626322 0.09834605222123384 0  1.882206434331873 -0.2686982850037661 0  0.1426699461850768 0.2146575767791519 0  -1.886304127069339 0.251758104550396 0  0.2495743011762567 0.06264742837969955 0  -0.78125 0 0  0.04042933102838756 -0.2590839715717854 0  -1.53125 0 0  -0.5823692714154002 0.2663576540687616 0  -0.2594008044921133 0.2871583817002197 0  -0.9375 0.4157678007976423 0  0.9696186653311423 -0.2675997292662616 0  -0.7942971416386473 0.2646257048857303 0  0.06249999999999992 -0.4169388545076413 0  0.1874999999999999 -0.4169388545076413 0  -1.562839467699977 0.2864000626355251 0  -0.1875 0.4157529178973974 0  -0.1223698320396133 0.2179970721626365 0  1.770639498024741 -0.1399156735731578 0  0.9367002721196375 -0.4157324987180338 0  -1.90625 0 0  -0.2298618769854927 -0.08904896555277285 0  0.1397131066802196 -0.232031643549068 0  -0.4375 0.420861596936145 0  -0.3483554784186823 -0.1925292675214375 0  0.59375 0 0  -1.327632151430252 0.1057660692693074 0  -0.9830051201906395 0.3115204496273563 0  1.90625 0 0  1.236354269160391 -0.3993990952861421 0  -1.1875 0.4214935578661845 0  0.5625 -0.4247705455161483 0  -0.7349377422908023 0.1635199768201956 0  -1.583328550170068 0.08705835459183674 0  -1.640104497493491 0.2259991665335075 0  -1.467109316827997 0.2210671404637805 0  0.5896070530325394 -0.2690578560650788 0  0.3266472067106532 -0.167734762534917 0  -0.59375 0 0  -0.546875 0.08448914438556519 0  1.71875 0 0  1.156078290691277 -0.2031315651260504 0  1.337704613095238 -0.2433035714285714 0  1.236312294597949 -0.09486607142857142 0  0.1642123379155914 0.3701207892454864 0  0.2345507206108115 -0.04384512844718241 0  -0.4048861533022036 -0.02273791864794379 0  0.03798857341016919 0.3979165301900267 0  -0.4006523628802168 0.334179001454817 0  -0.1135990210174155 -0.393340785880617 0  1.906775738056482 -0.3598876272511091 0  1.720393990929705 -0.4044642857142857 0  -1.71875 0 0  1.15625 0 0  0.78125 0 0  1.53125 0 0  -0.96875 0 0  1.34375 0 0  -1.15625 0 0  1.142828909845958 -0.4078056758504979 0  0.40697192225457 -0.01923608979840619 0  -1.767708120728825 0.08966855818957545 0  -0.6882384924227143 0.4308047125515967 0  -0.3636785153797087 0.1553944795036722 0  -0.2291274285977749 0.08616080495998404 0  -0.281012338688557 -0.01202669255906096 0  0.3108677056378212 0.2586754570559801 0  -1.151751953043632 0.196872287087452 0  -0.5625 0.4330368698813529 0  0.6875 -0.4328910527173583 0  1.405021000845949 -0.3057191080886871 0  0.546875 -0.08025568181818182 0  0.3713523302229579 0.1599284134935842 0  -1.12196127795563 0.2911449911382941 0  -1.276991293863022 0.2522534749828799 0  1.255195006158927 -0.2798057638555942 0  -0.8388532729558951 0.4114132763440825 0  0.8388532729558953 -0.4114132763440825 0  -0.4557763550657601 0.2486174768248819 0  0.2049883534781638 -0.2934473685517857 0  0.3226059585583683 -0.4273378498573185 0  -1.426982449282418 0.4270508114904024 0  1.397702183984896 -0.4056170514003312 0  0.05467855045156804 0.2285245978493705 0  -0.272823163096586 -0.3046204408381326 0  -0.02656096412551515 -0.4126877256833236 0  -1.807235369718798 0.2933328120993839 0  0.1906985117418444 0.1399478964461678 0  -1.688085622354259 0.3115694793217502 0  1.659329587961023 -0.2879395206246994 0  -1.5625 0.437202380952381 0  1.546313524296827 -0.4210926184041992 0  -1.813279560389256 0.4363923695021056 0  -1.926524548924358 0.4265245489243581 0  -0.1751061200004134 -0.1578066000831913 0  0.2891187728554643 -0.268298186700636 0  0.4721679687499999 -0.2490234375 0  0.7276683718449491 -0.1720688736051095 0  0.4744973194747868 -0.4152356216385488 0  0.9322020604693165 -0.07914563824612769 0  -1.275602471792197 0.4154857864535745 0  -0.828125 0.07552171441918698 0  1.3125 -0.5 0  -1.931646474339171 0.178059096704675 0  -0.7167268019830385 0.08016211756451477 0  1.060414578698922 -0.4368616551407768 0  -1.6875 0.5 0  1.9375 -0.5 0  1.739833210773432 -0.3220974693894793 0  -2 0.3125 0  -1.207440692409131 0.07848980221212992 0  -0.04055821595704934 -0.2377097412335854 0  0.1922531441870086 -0.1190381071624572 0  1.509237778147088 -0.2717758217431455 0  0.8901922386429052 -0.2437760747352658 0  -1.498530569603453 0.07867879855510211 0  0.9849923856958628 -0.1870513965806273 0  1.515605916195201 -0.1906351698786736 0  1.439317880445072 -0.08458133750179306 0  1.932491348856277 -0.2050969650933771 0  1.828075655121533 -0.08087981225769847 0  1
[...]
<PointData  Scalars="f_45"> 
<DataArray  type="Float64"  Name="f_45"  format="ascii">1.2619096934533392e+06  9.2317292610562942e+05  7.0453261168445309e+05  6.9959922886767332e+05  6.9325258090302045e+05  6.8587229881190346e+05  6.7645773011751717e+05  6.6510014923753880e+05  6.5283415902002621e+05  6.4057251531753421e+05  6.2842032591105963e+05  6.1604877791720466e+05  6.0340260100400960e+05  5.9042462810954021e+05  5.7707648928483634e+05  5.6343213081063551e+05  5.4934030632450909e+05  3.9166251686337361e-02  -4.2528847488779054e-02  4.4810811305982922e+05  4.5223783972798142e+05  4.5860584162629611e+05  4.6724613399233442e+05  4.7800868450689956e+05  4.9072277108981629e+05  5.0389542857000569e+05  5.1734370354285941e+05  5.3095783735834050e+05  5.4483276310946909e+05  5.5875167764267093e+05  5.7304778491395421e+05  5.8771176459077222e+05  6.0266278989189886e+05  6.1804088908969169e+05  5.5238337037013471e+05  5.4787452155507368e+05  5.4816051919081586e+05  5.5352209852109349e+05  5.6177337322280230e+05  5.7215275350017357e+05  5.8308232190580550e+05  5.9405379692724301e+05  6.0354098458121158e+05  6.0964622787603759e+05  6.1191246398590587e+05  6.1140347527811723e+05  6.0705043983198737e+05  5.9842722227636050e+05  5.8713986216526711e+05  5.7358407921735407e+05  5.6157026918612374e+05  9.4073094933834719e+05  2.7541547327673086e+05  8.4435822922507045e+05  7.6646523591047688e+05  2.2552856357486118e+05  4.1461241281686211e+05  1.1373202804804635e+06  1.3676412945592930e+05  7.8205820208008401e+05  3.4001903133740218e+05  8.8802695079177862e+05  1.1318562410926685e+05  3.7855279932983400e+05  7.8617699057514442e+05  1.0608565466618703e+06  6.8786604344660431e+04  4.8382616509645665e+05  6.9537082065037277e+05  4.6606234338562988e+05  8.8045857546890760e+05  2.7160218868166703e+05  1.2066467054504191e+06  1.0402767798647935e+06  9.7006293487945490e+05  1.6277133783443255e+05  -9.7438426464576011e-02  2.0555032658271739e+05  7.5746614230619336e+04  1.0333081214849231e+06  3.4538491653960280e+05  8.4972781714371592e+05  6.8954429839390353e+05  6.4623671451300429e+05  5.2785914933000726e+05  8.5787062265062216e+05  3.1804264004157076e+05  2.1818396650160034e+05  1.6961046564573742e+05  8.6679389505067281e+05  2.8130305646213022e+05  8.1883425945077592e+05  7.4216018936133140e+05  3.9760141210105468e+05  5.6496301461062132e+04  9.0465841944900935e+05  4.9235818976196280e+05  9.7149814940489037e+05  5.8126427874603786e+05  6.2455796310405014e+05  1.0958240456612757e+06  1.0533393397313327e+05  5.2298015521609527e+05  6.6797439288335980e+05  1.1314151489919033e+06  6.9950463923995843e-02  3.4455287729399162e+04  5.7347202510112431e+05  1.9154617204404564e+05  2.4040617838562446e+05  9.5677920696972415e+05  7.3126601617378509e+05  3.2042353204360610e+05  8.0810101886742818e+05  9.0267742786083568e+05  7.4453390962591057e+05  4.2790963914755755e+05  4.2110989154102252e+05  9.8498243782594032e+05  3.7188767462498086e+04  5.0950471313107800e+05  8.0733516848503135e+05  1.1918551522897172e+05  5.2856991649207514e+04  6.5622248488218396e+05  7.2694241960733919e+05  2.3475887288864987e+05  9.2729512217965163e+05  8.2789408474896790e+05  1.4607782753384288e+05  2.7603704336878989e+05  6.5214915293511190e+05  3.8006411857555364e+05  9.8908909210255684e+05  1.0900061552955385e+06  1.0479507348480087e+06  4.8745742532890424e+05  1.4177818427930601e+05  3.6159139209450159e+05  6.9615594735703594e+05  4.4919723672018165e+05  2.5325584803704295e+05  1.8943397655252294e+05  9.7653169409549882e+04  9.5869126368126215e+05  8.5556716556166671e+05  9.2667222084070044e+05  8.2680151497371891e+05  7.8642898791946820e+05  3.5213979926966771e+05  3.9687138618933561e+05  7.5392204090320913e+05  1.7091381301223330e+05  1.1486261660147402e+06  1.2365036169356806e+06  1.0270805541107550e+05  1.1748603799118667e+06  3.1049937008534739e+05  8.9378227284183621e+05  5.1723210631728498e+05  6.5358315054660046e+05  2.4669011232615806e-02  9.9152770162332198e+05  1.0222039318849274e+06  6.0984867193008098e+05  4.5180006482730055e+05  4.9194144904300093e+05  6.2746721544680605e+05  3.8651206270994153e+05  8.6108539232861355e+05  1.1244737341557399e+06  5.4603704346268997e+05  3.4540784815288754e+05  6.0289552153368015e+05  8.4793504912748456e+05  4.6152235168830067e+05  5.9583416825132188e+05  3.1020706957159640e+05  2.9126573568356957e+05  7.0017516441096552e+05  3.3808679223913045e+04  5.6042770527193660e+05  1.0581466076601674e+06  5.2263048644115735e+05  7.6158247290901677e+05  5.5514880484705057e+05  8.7776048961003427e+05  7.5967159135498467e+05  6.7173808775925846e+05  8.9673404373313347e+05  2.9619822796454740e+05  8.1865800804841879e+05  5.3830241411622812e+05  5.0571920911186218e+05  1.0310511096218779e+06  6.6405003559679666e+05  6.2720184359118168e+05  6.7409425053965941e+04  2.9771322557804268e+05  9.1254817863688630e+05  6.2962385583345208e+05  5.3204063842107565e+05  7.3763623753881676e+05  6.5246721546749119e+05  4.2306957417148771e+05  8.9743927551970677e+05  8.8462728859851707e+05  2.8195643028480674e+04  2.1361350821460222e+05  9.8644016081048932e+05  4.0221169189726247e+05  7.8304022038202477e+05  9.2804609951589350e+05  1.0116852478036650e+06  9.7665581361730280e+05  4.0490897440814105e+05  4.8535103650300519e+05  7.2398789746573113e+05  7.2484385728806863e+05  8.4893550344800358e+04  2.4499540078026219e+05  1.9076191002542910e+05  2.2590316548312502e+05  5.6628069673239707e+05  5.2026507337604504e+05  6.7981842745708977e+05  6.0084851239348983e+05  7.1681817667963612e+05  5.8290083361515228e+05  2.6325263878050780e+04  7.8178796460334139e+04  8.9647114507602004e+05  2.5331808241717567e+05  3.6957626330355619e+05  1.4141720531739210e+05  8.0147541340445308e+05  1.9769124454967407e+05  8.3284204870511091e+05  2.3968352982187440e+05  4.7301150281205331e+05  9.5077885854619904e+05  8.1727419575005420e+05  6.8646891446710471e+05  6.4247165661596111e+05  6.4846936804337369e+05  5.2005211441566463e+05  8.9571287569648714e+05  7.7771361136458453e+05  3.6688874540716625e+05  1.6931781327757711e+05  4.2997041290420084e+05  4.9567684672476252e+05  9.1950920763529092e+05  9.4704325173005438e+05  2.1312746792151820e+05  8.6269346885211905e+05  3.2563710730498348e+05  7.2222870569969143e+05  5.0964440834939887e+05  4.6842959203549824e+05  1.0712101293859587e+06  1.6802913630992625e+05  5.8346609957199008e+05  6.2586150133352308e+05  5.6080722248423239e+05  1.0773127498976071e+06  5.4317823642790504e+05  1.0704304890084066e+06  9.7338829619025026e+04  1.1180947039918120e+06  1.2616977177006516e+05  1.1758908711959219e+06  1.1865063460581796e+06  6.1207923834402440e+05  4.8853340061765368e+05  4.3909904482087638e+05  3.7234132077669207e+05  4.2726080294594809e+05  3.1749230881204800e+05  1.0146222805701710e+06  7.8781097877309017e+05  1.8820394808059864e+05  1.0143567742589351e+06  7.6318064612602931e+05  2.6161006130518494e+05  1.1917574441336964e+06  1.7268808233421063e+04  7.3884312295456606e+04  1.1039057165476726e+06  8.6635321957600582e+05  5.7606185626518831e+05  5.2715556032567238e+05  1.4058471291132877e+05  3.2060029732984852e+05  9.1207528375773667e+05  2.9593466286537627e+05  1.4094761456187570e+05  1.6639705586789353e+05  1.9603835091982422e+04  5.1068781502700469e+04  5.3466311594165556e+04  5.4786123933486699e+05  6.7299881956320361e+05  3.9917803944680735e+05  1.0284119383526811e+06  6.3898672714098112e+05  2.1975511550888041e+04  9.5036600520331354e+05  9.6009961488821486e+05  1.8866220995352091e+05  2.5490828678588069e+05  9.2656158766431094e+05  8.5302903954267071e+05  1.2534449580509256e+05  7.5311333996247291e+05  9.8268647882582783e+05  3.4152425334327674e+05  5.0552839276620379e+05  4.5267735466743796e+05  8.8824360780768131e+05  5.4677549638406010e+04  6.2981797124391305e+05  1.2586092030535567e+05  6.6408832397154160e+05  7.1084531820494251e+05  9.8836035751527909e+05  4.6958983004582138e+05  9.7506191994833905e+04  2.5290818771591235e+05  1.1992409387863491e+05  8.0888201215207548e+04  9.2577812410351529e+05  9.4579616430623538e+05  3.8172736375364380e+04  5.9005371704236313e+04  4.4247190104305139e+05  8.3072825514935399e+05  6.7335093933904287e+05  1.0724489285932123e+06  1.0047850306608181e+06  6.7362258867977920e+05  6.5033906511505262e+05  1.1048454336129432e+06  9.4989313654082979e+05  8.2386711757153599e+05  1.4645663965290796e+05  8.0387414172703249e+05  6.0927053290505358e+05  9.5585850751094054e+05  3.4068156402886764e+05  2.9696895756707661e+05  2.7505716258094157e+05  6.9950463923995843e-02  8.2403569326572504e+05  -4.1946367831949605e-02  2.0773982703682300e+05  5.0547479071326106e+05  2.2291915164228759e+05  9.0167349104316928e+05  1.1425042191643161e+06  6.8527964255076461e+05  9.2547946564764937e+05  6.3014452870702767e+05  5.4166775569459947e+05  3.4300770448972064e+05  3.7936971049981081e+05  8.4973195015453582e+05  4.1202243797452626e+05  5.4808926470034639e+05  1.8915828769555610e+04  4.7161740778814122e+05  7.0784994146233203e+05  5.1031746252510126e+05  7.1677226754730183e+05  6.9594462210836972e+05  1.0955607659057004e+06  1.9818077862380201e+05  4.8731443183161237e+05  6.4347054796058848e+05  8.5773227763638628e+04  9.4966115291191061e+04  1.7127846678386768e+05  2.6530746673821128e+05  2.6275277020418353e+05  7.3715963527090976e+05  2.3550540462480689e+05  5.4193606281709590e+05  8.4296507659540628e+05  3.4302321026385226e+05  3.7117596684840141e+05  8.3943676080456167e+05  8.0858091339970951e+05  5.6374365244041721e+05  3.5952461200944410e+05  5.9793376104926167e+05  7.7090343453986151e+05  1.0610993440368990e+05  9.6339765912121988e+05  9.2298026094705448e+05  9.5076021915960789e+05  9.4451483263173071e+05  8.0644920473396534e+05  7.8143240570841823e+05  7.6368574862041813e+05  8.7176882074985863e+05  4.1315355237668025e+05  4.4296223095270846e+05  1.0483322854574367e+06  5.8328402019532479e+05  5.9488347953048558e+05  6.2773775997164706e+05  5.3243126635535585e+05  7.8734717336738133e+05  7.3948953155613248e+05  1.0457938128015400e+06  1.8376204525755488e+05  5.5695032739280676e+05  6.0871419103575463e+05  5.8784080295701511e+05  6.1399651365235890e+05  5.9837135542688542e+05  8.7142008185262664e+05  6.4656372010169085e+05  6.3572119800799922e+05  1.0359091139824813e+06  9.9119737284102954e+05  8.9088945107445354e+04  4.7833210390851478e+05  6.9397264278419758e+05  9.3350775029806234e+05  7.9669145740256645e+05  1.5874600392258251e+04  7.5529414764488314e+05  2.7966379637349211e+05  8.7133830155047937e+05  8.2626722796640627e+05  8.3855421812702867e+05  8.8109088526886480e+05  2.3175389560649113e+05  3.8493377416640520e+05  3.9734095988912444e+05  4.6658599295153259e+05  9.6593590191154974e+05  7.5548648376228211e-02  2.5790414711031600e+05  1.0208829325079375e+06  1.2007722786182491e+06  1.2502400437496409e+06  1.1966339391721868e+05  1.1567315569480336e+06  1.1144429888579524e+06  8.2815244048481656e+05  1.0159946930748032e+06  7.4652293020385376e+05  2.9298816437000345e+05  6.7148941023754852e+05  5.0061172394049761e+05  5.2106578363550565e+05  9.1653369355799269e+05  5.3344903881779965e+05  7.8685025113979599e+05  3.6280460931016639e+05  1.2216029560268573e+06  2.4669011232615806e-02  5.1670293860708276e+04  1.5382378278225719e+05  3.2794640452328767e+05  4.3188180180179898e+05  1.0651620500230212e+06  1.5552266884336938e+05  8.1621906102555673e+04  5.1059035319147009e+05  1.0221529428697199e+06  6.6346731407692237e+05  2.3941894142551135e+05  2.4404757412905779e+05  6.1754153211443964e+05  6.3350128664500790e+05  4.7342916270777985e+05  1.7461308511863321e+04  2.0930846694672239e+05  8.7417688408674160e+05  3.8048190888037201e+05  4.0503436988950067e+04  4.0405008076540573e+05  2.9557464599078696e+05  2.8298943795096036e+05  1.0714376385054335e+06  1.8131973870044306e+05  4.5570044494693540e+05  3.9523708497887093e+05  1.1071103147188628e+06  1.1661978868417067e+06  1.1327539851774345e+06  3.8780844382217265e+05  6.8363081278559437e+05  4.2169789536311477e+05  3.0652202179065032e+05  3.0177582226413680e+05  2.8037431133390433e+05  1.0037768874573011e+06  5.8779215507294354e+05  7.4038421603538538e+05  4.9485479015019472e+05  9.2406334925214679e+05  5.6231357371742639e+05  4.4457168427287723e+05  5.3067516875035793e+05  7.0088524529954826e+05  8.0330335262316174e+05  8.5199838516145688e+05  7.0927126669076225e+05  5.7718964703808399e+05  3.6524121304320506e+04  9.0032275685370702e+05  2.7364748584238387e+05  9.9616394631142798e+05  5.1119811182469549e+05  5.9270086567915673e+05  7.1675146242520062e+05  1.5165933640264219e+05  2.1295454240249828e+05  5.8422538148477406e+05  9.8296471344705380e+05  8.5037781927141210e+05  1.0506484152661874e+06  1.0915682233579147e+06  1.0227723529076807e+06  6.5902276663549026e+04  1.1907512320192780e+06  4.4127286483825539e+05  4.1390723954073375e+05  5.7087674384751136e+05  9.8490159131331381e+05  5.4156110491541121e+05  5.6525982939601131e+05  6.4860809421629226e+05  1.0063441280519279e+06  6.1064998175668658e+05  1.5406111161515440e+05  9.1697364223150839e+05  1.4112339765058092e+04  1.1049537132047830e+05  3.6516082277991045e+04  1.1474443616194242e+05  4.8945868645735370e+05  2.1627734242757814e+05  7.7138802745762921e+05  3.6686444381551986e+05  5.2541344735317957e+05  6.5111257447488955e+05  8.0544114675970573e+05  5.7044228336618177e+05  5.5301491992006963e+05  3.0723288789012865e+05  4.6716120621885068e+05  5.2749694558382989e+05  5.3819253935309569e+05  9.1259188857757812e+05  5.3375641647169157e+05  1.5683523790033927e+05  6.3807043577507243e+05  8.1201447190437315e+05  8.9380683840528119e+05  1.1437324917035187e+06  6.3949796256662579e+05  8.7772686553581024e+05  3.6632644957214297e+05  6.6814459217319090e+05  6.8539548365628975e+05  8.3768131346950843e+05  8.0043047642592376e+05  7.0127737981367682e+05  2.0096746825147630e+05  5.1700026135010418e+05  4.9294677020995138e+05  3.3658571237447130e+05  8.7481121401750564e+05  9.0228607450126868e+05  6.2499165073672845e+05  4.8237353743514518e+05  7.6886706288293318e+05  1.0625528462876896e+06  6.6102669301739510e+05  6.3360038993792457e+05  7.4733484688357112e+05  6.8361715288322116e+05  3.3244690961123293e+05  5.0590096180867258e+05  6.5861527336198534e+05  6.5674662351951667e+05  2.8448645889824058e+05  3.0779500638757215e+05  8.7461960402859689e+05  9.1883249898857565e+05  8.8574828227509256e+05  3.5860277276951855e+05  5.6647316140984616e+05  1.3665280085873435e+04  3.8749211831593979e+05  3.0720253157773544e+05  3.0402058036026621e+05  9.3494666660053877e+05  2.8669247980101331e+05  3.5601798908649321e+05  5.1645442657071457e+05  5.2931468914350995e+05  5.4374263729946688e+05  4.9457670621705492e+05  4.7091798715244746e+05  5.9509633774130279e+05  6.1902077995091083e+05  6.8408037098377431e+05  5.2509407866710659e+04  5.5115699526420643e+05  5.4499438367188047e+05  5.2470682976236136e+05  6.2254816306217550e+05  6.1522150115576782e+05  6.4248863409473212e+05  3.2995515524660517e+05  2.0670113262409603e+05  1.9713807222305817e+05  1.7465482998730996e+05  5.9937239936993271e+05  9.6569495299504371e+05  2.3358819708081594e+05  1.5913101918740664e+05  7.5164683677017665e+05  4.3187962534172792e+05  9.0058371964490309e+05  2.5472555073815832e+05  3.3353509038607817e+05  6.2859336312318826e+05  2.0017774545387042e+05  6.1282563331396529e+05  7.2716674583723012e+05  7.1144003894994361e+05  5.9596430389614066e+05  2.2872465983392156e+05  9.0483047055962484e+05  9.0552900475526962e+05  8.2011735609271083e+04  5.6065815976352117e+05  6.6236579876880907e+05  5.0652483358636987e+05  6.7453044552956789e+05  8.7243666802507953e+05  8.1524359774646349e+04  7.6678467727004748e+05  7.5186809413447778e+05  7.3202946497920051e+05  7.3387742433062126e+05  6.7234507374632842e+04  4.8188111609855166e+05  6.2872193027585198e+05  6.5010458341104898e+05  4.0888686791367532e+05  7.1122870343503065e+05  9.6899082859553711e+05  1.0127405597764184e+06  9.2933405384204083e+05  5.0279143862708542e+05  4.9539516565214930e+05  1.7564121107014979e+05  1.6065370925653697e+05  6.4971866369288000e+04  1.1570959094720840e+05  6.7592994033028791e+05  9.8954990757835971e+05  2.8658640196991782e+05  3.7328963888005848e+04  7.9201640599721798e+05  9.0783549046779622e+05  7.6788077559108706e+05  1.1001446794106341e+06  4.5554408273845870e+05  4.7668027147942432e+05  2.4766812992727334e+05  1.0393701813614530e+06  6.3798950163807312e+05  4.1053347904890077e+05  9.6487661134903575e+05  9.2481620455218758e+05  9.4521321490811848e+05  7.5074042693685950e+05  6.7622391210002161e+05  3.1174817837935581e+05  9.9049104804448783e+04  4.0843132891967171e+05  3.9052471247958648e+05  6.9210431668583478e+05  6.6916793147340929e+05  8.6557751908731251e+05  7.6642935169436969e+05  3.3091614740166848e+05  4.9198516149133741e+05  6.1450088744775776e+05  7.2545948660417809e+05  4.5218613833228988e+05  6.5908295068105741e+05  8.9229019585692161e+05  1.7303722355238872e+05  1.1423190461665941e+06  1.8328979495962462e+05  8.8305273925469269e+05  4.2806940899643250e+05  7.2444900725952012e+05  4.9839999427819019e+05  9.6078940824614093e+05  9.5111592530877597e+05  9.7570927779545845e+05  9.0701804840935930e+05  5.7218980826648767e+05  5.0836234045475005e+05  8.2513990216716449e+05  9.0855755733001907e+05  9.3615686740210699e+05  6.2087773859190394e+05  5.5867642824965389e+05  5.5596328490049660e+05  9.8117841168408247e+05  6.5940678349138924e+05  2.3025760486729050e+05  7.4495218830858299e+05  6.8934575682184880e+05  8.4440047549431492e+05  3.2281180316181906e+05  3.1762769207166170e+05  1.0821125995179624e+06  9.4484271310341358e+05  5.7134185451127181e+05  6.6156749621039035e+05  5.3191264991971897e+05  5.0643924866485724e+05  9.0577960048595979e+05  4.7928085261962371e+05  9.6987018095452513e+05  2.8441095596243402e+04  1.1252405814597323e+06  5.8060122088821884e+05  4.6217937630327255e+05  4.8345507056935231e+05  4.3173873241262283e+05  2.5835158621599193e+05  2.4896746746538731e+05  2.3055970970072030e+05  6.7454084008430375e+05  5.1795106439711642e+05  6.2544854200738110e+05  3.9227675349067175e+05  9.2816803375147487e+04  7.3622357529752282e+05  2.7417937844393597e+04  3.9348321859651194e+04  6.2781156279193051e+05  6.3619399971912766e+05  6.1439677901347866e+05  5.8327134350590000e+05  6.3578146600192040e+05  2.6727221908653487e+05  3.8395361196370481e+05  1.1405620275192116e+06  2.1162211617927527e+05  8.1040746486601944e+05  1.2729881724208345e+05  8.6106849856093002e+05  8.3864474449275376e+05  7.7183741410637659e+05  4.3555422410272266e+05  1.8369625268177822e+05  7.0678953459436831e+04  4.2329908903461335e+04  8.5015235377078119e+05  7.3362371988142538e+05  3.5487666257418582e+05  3.2504544948192302e+05  7.1411771714435797e+05  8.8297655111905630e+05  8.1240088514586748e+05  7.9451591811083362e+05  6.0613063163606694e+05  9.2824893006405444e+05  8.9931549120490090e+05  9.3671568470559479e+05  9.8547152329186688e+05  9.8496895330880338e+05  8.7347972032032791e+05  1.0073763521211437e+06  9.4250683818812342e+05  1.0507155412360282e+05  1.0696720270138905e+05  8.9580032829231001e+04  1.4277331221927725e+04  4.3225514111685712e+05  4.2491987274118513e+05  4.4252897558404430e+05  8.2303358401381632e+05  8.3310673491602554e+05  8.3130808380276721e+05  7.2867247937162337e+05  4.2986587553997530e+05  6.5069430558734201e+05  7.8562810572907247e+05  1.0589935324118304e+05  2.4159501066791522e+05  1.5592347920668600e+05  1.0395643823346237e+06  6.4179947260830020e+04  3.4755546758659993e+05  2.4001709012503290e+05  4.8252292437787267e+05  3.5611222402771161e+05  3.7563815252050932e+05  4.3304586421879329e+04  3.5516051182931027e+05  7.9289920495742559e+05  9.8793071625123720e+05  1.1903346740449558e+05  1.3271714833197184e+05  1.2916084739496573e+05  6.6354559520420711e+05  5.5526132531255868e+05  2.9032948914423399e+05  5.7309745235781628e+05  9.2029553922410624e+05  1.2718133669477732e+05  5.9349454912997945e+05  6.0778669865057990e+05  2.21436627259937