<?xml version="1.0"?>
<VTKFile type="UnstructuredGrid"  version="0.1"  >
<UnstructuredGrid>
<Piece  NumberOfPoints="1981" NumberOfCells="3668">
<Points>
<DataArray  type="Float64"  NumberOfComponents="3"  format="ascii">-2 0.5 0  -2 0 0  -0.5 0 0  -0.4968561049466213 -0.05598223805165387 0  -0.4874639560909119 -0.1112604669781569 0  -0.4719416651541838 -0.1651395309775835 0  -0.4504844339512096 -0.216941869558779 0  -0.4233620996141421 -0.2660160382576682 0  -0.3909157412340148 -0.3117449009293669 0  -0.3535533905932738 -0.3535533905932737 0  -0.3117449009293669 -0.3909157412340148 0  -0.2660160382576683 -0.4233620996141421 0  -0.2169418695587791 -0.4504844339512095 0  -0.1651395309775836 -0.4719416651541837 0  -0.1112604669781573 -0.4874639560909118 0  -0.05598223805165402 -0.4968561049466213 0  -9.184850993605148e-17 -0.5 0  2 -0.5 0  2 0 0  0.5 0 0  0.4968561049466213 0.05598223805165393 0  0.4874639560909118 0.1112604669781572 0  0.4719416651541838 0.1651395309775835 0  0.4504844339512096 0.2169418695587791 0  0.4233620996141421 0.2660160382576683 0  0.3909157412340149 0.3117449009293667 0  0.3535533905932738 0.3535533905932737 0  0.3117449009293668 0.3909157412340149 0  0.2660160382576683 0.4233620996141421 0  0.2169418695587791 0.4504844339512096 0  0.1651395309775837 0.4719416651541837 0  0.1112604669781572 0.4874639560909118 0  0.05598223805165384 0.4968561049466213 0  3.061616997868383e-17 0.5 0  0.1398708344106534 0.05418624992807294 0  0.15 0 0  0.1398708344106534 -0.05418624992807295 0  0.1108513375830988 -0.1010543465469837 0  0.06686075336648065 -0.1342744937032594 0  0.01384025391949536 -0.1493601264442552 0  -0.04104944851081246 -0.1442738464759228 0  -0.09039519545688858 -0.1197025840920358 0  -0.1275325703594421 -0.07896482443160337 0  -0.1474459649525853 -0.02756242767248552 0  -0.1474459649525853 0.02756242767248555 0  -0.1275325703594421 0.07896482443160341 0  -0.09039519545688844 0.1197025840920359 0  -0.04104944851081243 0.1442738464759228 0  0.0138402539194953 0.1493601264442552 0  0.06686075336648074 0.1342744937032593 0  0.1108513375830989 0.1010543465469836 0  -1 0.5 0  1 -0.5 0  -1.25 0 0  -0.5 0.5 0  1.25 0 0  0.4999999999999999 -0.5 0  -1.5 0.5 0  1.5 -0.5 0  -0.875 0 0  0.875 0 0  -1.625 0 0  1.625 0 0  0.6875 -0.2500000000000001 0  -0.6875 0.25 0  -2 0.25 0  1.75 -0.5 0  0.2499999999999999 -0.5 0  -0.3583969912126916 0.25 0  0.3749999999999999 -0.25 0  -1.0625 0.21875 0  1.0625 -0.21875 0  -1.75 0.5 0  -1.25 0.5 0  -1.375 0.25 0  1.4375 -0.21875 0  2 -0.25 0  1.25 -0.5 0  1.7375 -0.2375 0  -1.7375 0.2375 0  0.75 -0.5 0  -0.75 0.5 0  -0.25 0.5 0  -0.1570377317087672 0.3153742794659282 0  0.1249999999999999 -0.3338777090152827 0  -0.8826650943396226 0.3263561320754717 0  0.8826650943396227 -0.3263561320754717 0  1.25 -0.1897321428571428 0  1.4375 0 0  -1.4375 0 0  1.0625 0 0  -1.0625 0 0  -0.6875 0 0  0.6875 0 0  1.8125 0 0  -1.8125 0 0  0.3263011380546194 -0.06940056902730968 0  -1.554017857142857 0.1790178571428572 0  0.08847100915780901 0.3109433440851622 0  -0.2412983234264066 -0.2156373655531345 0  -1.625 0.3744047619047619 0  1.625 -0.3744047619047619 0  0.2743272717766799 0.1698562554772697 0  -0.3279338175957848 0.06764246763930631 0  -1.863068181818182 0.3630681818181818 0  2 -0.375 0  1.875 -0.5 0  -0.05442366733490933 -0.3203147637646457 0  1.321986607142857 -0.3448660714285714 0  1.125 -0.5 0  -1.209821428571429 0.3236607142857143 0  -0.5229484956063458 0.1781011282952406 0  0.9067445847815293 -0.1625224987586892 0  -0.8335714777578845 0.1642411083184135 0  -1.237063437253354 0.1627182813733228 0  -0.4947697009489606 0.3378596801347012 0  0.53125 -0.171875 0  0.5156249999999999 -0.3359375 0  -2 0.125 0  1.873225308641975 -0.1497685185185185 0  0.2341337966231563 -0.1911191776024666 0  -0.625 0.5 0  1.587453076345555 -0.2288757784711196 0  1.8125 -0.3654761904761905 0  -0.3326862624810256 -0.08869875963335262 0  -0.375 0.5 0  1.174048204529175 -0.319244854540162 0  -1.067618031042359 0.3674567846760797 0  -0.96875 0.109375 0  1.481463366596639 -0.3565498074229692 0  1.023503306098383 -0.3576535124663073 0  -0.2265388519390893 0.1866542405407749 0  0.625 -0.5 0  -1.852445652173913 0.1432065217391304 0  -1.375 0.5 0  -1.479101577239454 0.3541992113802732 0  0.2708871299591885 -0.3541935649795943 0  1.520204106978579 -0.109375 0  0.78125 -0.1026731411563172 0  -0.3125 0.3785994323952442 0  0.3749999999999999 -0.5 0  1.141568346088435 -0.109375 0  1.358431653911565 -0.109375 0  1.668712727161379 -0.1246887081867154 0  -1.673050595238095 0.1226339285714286 0  -1.34375 0 0  -1.431523109243698 0.1313182773109244 0  -0.7546231943577876 0.3660317014105531 0  -0.6233296454587935 0.3645528204344609 0  0.7546231943577878 -0.3660317014105531 0  0.6537002726710706 -0.125 0  -0.6441338591766993 0.125 0  1.375 -0.5 0  -2 0.375 0  -1.875 0.5 0  1.625 -0.5 0  -1.625 0.5 0  0.875 -0.5 0  -0.875 0.5 0  0.1249999999999999 -0.5 0  -0.125 0.5 0  2 -0.125 0  -1.125 0.5 0  -1.354082022940739 0.375 0  -0.03500388138134332 0.2732363193989585 0  0.3955099577726473 -0.3752808566622692 0  0.3596026196703111 0.0631070919012526 0  -0.0625 0.394061918116807 0  0.6342080192637126 -0.3582597885274255 0  -1.123666900137815 0.109375 0  -1.744588744588745 0.3803841991341991 0  0.2210084381421171 0.2925777566973838 0  0.8072251313743133 -0.2315819627814412 0  -0.1814335426834733 -0.3282792760620681 0  -0.9356634513979559 0.2218154628239019 0  0.4183753556420685 -0.1414382112841371 0  -0.1238894550978499 -0.2292394949250368 0  0.96875 0 0  1.013652292192466 -0.1102204462032291 0  -0.4393328341626322 0.09834605222123384 0  1.882206434331873 -0.2686982850037661 0  0.1426699461850768 0.2146575767791519 0  -1.886304127069339 0.251758104550396 0  0.2495743011762567 0.06264742837969955 0  -0.78125 0 0  0.04042933102838756 -0.2590839715717854 0  -1.53125 0 0  -0.5823692714154002 0.2663576540687616 0  -0.2594008044921133 0.2871583817002197 0  -0.9375 0.4157678007976423 0  0.9696186653311423 -0.2675997292662616 0  -0.7942971416386473 0.2646257048857303 0  0.06249999999999992 -0.4169388545076413 0  0.1874999999999999 -0.4169388545076413 0  -1.562839467699977 0.2864000626355251 0  -0.1875 0.4157529178973974 0  -0.1223698320396133 0.2179970721626365 0  1.770639498024741 -0.1399156735731578 0  0.9367002721196375 -0.4157324987180338 0  -1.90625 0 0  -0.2298618769854927 -0.08904896555277285 0  0.1397131066802196 -0.232031643549068 0  -0.4375 0.420861596936145 0  -0.3483554784186823 -0.1925292675214375 0  0.59375 0 0  -1.327632151430252 0.1057660692693074 0  -0.9830051201906395 0.3115204496273563 0  1.90625 0 0  1.236354269160391 -0.3993990952861421 0  -1.1875 0.4214935578661845 0  0.5625 -0.4247705455161483 0  -0.7349377422908023 0.1635199768201956 0  -1.583328550170068 0.08705835459183674 0  -1.640104497493491 0.2259991665335075 0  -1.467109316827997 0.2210671404637805 0  0.5896070530325394 -0.2690578560650788 0  0.3266472067106532 -0.167734762534917 0  -0.59375 0 0  -0.546875 0.08448914438556519 0  1.71875 0 0  1.156078290691277 -0.2031315651260504 0  1.337704613095238 -0.2433035714285714 0  1.236312294597949 -0.09486607142857142 0  0.1642123379155914 0.3701207892454864 0  0.2345507206108115 -0.04384512844718241 0  -0.4048861533022036 -0.02273791864794379 0  0.03798857341016919 0.3979165301900267 0  -0.4006523628802168 0.334179001454817 0  -0.1135990210174155 -0.393340785880617 0  1.906775738056482 -0.3598876272511091 0  1.720393990929705 -0.4044642857142857 0  -1.71875 0 0  1.15625 0 0  0.78125 0 0  1.53125 0 0  -0.96875 0 0  1.34375 0 0  -1.15625 0 0  1.142828909845958 -0.4078056758504979 0  0.40697192225457 -0.01923608979840619 0  -1.767708120728825 0.08966855818957545 0  -0.6882384924227143 0.4308047125515967 0  -0.3636785153797087 0.1553944795036722 0  -0.2291274285977749 0.08616080495998404 0  -0.281012338688557 -0.01202669255906096 0  0.3108677056378212 0.2586754570559801 0  -1.151751953043632 0.196872287087452 0  -0.5625 0.4330368698813529 0  0.6875 -0.4328910527173583 0  1.405021000845949 -0.3057191080886871 0  0.546875 -0.08025568181818182 0  0.3713523302229579 0.1599284134935842 0  -1.12196127795563 0.2911449911382941 0  -1.276991293863022 0.2522534749828799 0  1.255195006158927 -0.2798057638555942 0  -0.8388532729558951 0.4114132763440825 0  0.8388532729558953 -0.4114132763440825 0  -0.4557763550657601 0.2486174768248819 0  0.2049883534781638 -0.2934473685517857 0  0.3226059585583683 -0.4273378498573185 0  -1.426982449282418 0.4270508114904024 0  1.397702183984896 -0.4056170514003312 0  0.05467855045156804 0.2285245978493705 0  -0.272823163096586 -0.3046204408381326 0  -0.02656096412551515 -0.4126877256833236 0  -1.807235369718798 0.2933328120993839 0  0.1906985117418444 0.1399478964461678 0  -1.688085622354259 0.3115694793217502 0  1.659329587961023 -0.2879395206246994 0  -1.5625 0.437202380952381 0  1.546313524296827 -0.4210926184041992 0  -1.813279560389256 0.4363923695021056 0  -1.926524548924358 0.4265245489243581 0  -0.1751061200004134 -0.1578066000831913 0  0.2891187728554643 -0.268298186700636 0  0.4721679687499999 -0.2490234375 0  0.7276683718449491 -0.1720688736051095 0  0.4744973194747868 -0.4152356216385488 0  0.9322020604693165 -0.07914563824612769 0  -1.275602471792197 0.4154857864535745 0  -0.828125 0.07552171441918698 0  1.3125 -0.5 0  -1.931646474339171 0.178059096704675 0  -0.7167268019830385 0.08016211756451477 0  1.060414578698922 -0.4368616551407768 0  -1.6875 0.5 0  1.9375 -0.5 0  1.739833210773432 -0.3220974693894793 0  -2 0.3125 0  -1.207440692409131 0.07848980221212992 0  -0.04055821595704934 -0.2377097412335854 0  0.1922531441870086 -0.1190381071624572 0  1.509237778147088 -0.2717758217431455 0  0.8901922386429052 -0.2437760747352658 0  -1.498530569603453 0.07867879855510211 0  0.9849923856958628 -0.1870513965806273 0  1.515605916195201 -0.1906351698786736 0  1.439317880445072 -0.08458133750179306 0  1.932491348856277 -0.2050969650933771 0  1.828075655121533 -0.08087981225769847 0  1
[...]
<PointData  Scalars="f_45"> 
<DataArray  type="Float64"  Name="f_45"  format="ascii">2.3652472170225410e+06  1.7861905644935055e+06  1.3605232529815445e+06  1.3435490826496736e+06  1.3261380907967724e+06  1.3079679685505696e+06  1.2891489020019607e+06  1.2698824539376001e+06  1.2497891614241975e+06  1.2284307288995434e+06  1.2060532782874994e+06  1.1823133239927972e+06  1.1576780048200081e+06  1.1325259024672078e+06  1.1071620621466034e+06  1.0819726707033669e+06  1.0571403993791752e+06  9.6600111408297717e-02  -1.0235249743749852e-01  8.8741917272760707e+05  9.0778078971996310e+05  9.2736431907372980e+05  9.4773131101705949e+05  9.6908876422423217e+05  9.9108367572518403e+05  1.0139566167526679e+06  1.0382506120140284e+06  1.0635771937768594e+06  1.0900690911952353e+06  1.1176276964227220e+06  1.1456930129015010e+06  1.1739585928313257e+06  1.2021835174516132e+06  1.2300871680286722e+06  1.0757768868172695e+06  1.0577343305179025e+06  1.0507955260932513e+06  1.0554895073061525e+06  1.0715113168718228e+06  1.0960330698296912e+06  1.1263041903615366e+06  1.1576167547222713e+06  1.1860278420982328e+06  1.2085228024659995e+06  1.2218718433597947e+06  1.2230640439453700e+06  1.2124870963052802e+06  1.1916624603579105e+06  1.1634503928542649e+06  1.1326330699996748e+06  1.1017374226496229e+06  1.7852882859135249e+06  5.5087223528924829e+05  1.6136219720017610e+06  1.5018048423622954e+06  4.3873416806577769e+05  8.1909043448537670e+05  2.0508238187784485e+06  2.7609765770756098e+05  1.4977677406919533e+06  6.5560409598643635e+05  1.7112677552030776e+06  2.1922029173140839e+05  7.4251796259205427e+05  1.5193580833594741e+06  1.9989243991599784e+06  1.3847140520909050e+05  9.4293188812695839e+05  1.3620844929932738e+06  9.1023196453301702e+05  1.6688268210842295e+06  5.3377088463046891e+05  2.1968648890476963e+06  1.9168661667924565e+06  1.8143485649122745e+06  3.2076649430243333e+05  -2.3946649503231976e-01  4.1365803390753292e+05  1.4945809577676267e+05  1.9385967069419737e+06  6.8701390070563368e+05  1.6488729983961813e+06  1.3606639997214281e+06  1.2772767299752282e+06  1.0204323230744714e+06  1.6418872230046354e+06  6.2743212504441803e+05  4.2890920091498201e+05  3.2895410677986674e+05  1.6667181248617810e+06  5.4789255110985145e+05  1.5555755621835846e+06  1.4341697989717389e+06  7.6702869023776206e+05  1.0949205722505444e+05  1.7501092994718428e+06  9.6355020017225458e+05  1.8294560432679616e+06  1.1549981462665773e+06  1.2064852249539350e+06  2.0159222923813106e+06  2.1019918015802620e+05  1.0382510314541589e+06  1.3051812297388974e+06  2.1085871185098509e+06  1.7320901280923584e-01  6.9293605803308383e+04  1.1053471731600405e+06  3.8087211148022086e+05  4.8231174032789568e+05  1.7907695496333817e+06  1.4204576298031311e+06  6.2593490484001325e+05  1.5500135609548958e+06  1.7056928442317038e+06  1.4529396731468183e+06  8.3842146525078313e+05  8.2690870379939687e+05  1.8780614456477868e+06  7.2875725954724519e+04  9.8770179608733777e+05  1.5762248539148776e+06  2.3505155930954567e+05  1.0531712190482601e+05  1.2710463912183312e+06  1.4294682119158257e+06  4.6505802228044200e+05  1.7499303193231516e+06  1.5779482849755792e+06  2.9106109422304318e+05  5.4690589612428902e+05  1.2859050905562716e+06  7.5386551354541571e+05  1.8796288498395558e+06  1.9827193974936365e+06  1.9322349196365916e+06  9.4856438295758213e+05  2.7708287858975120e+05  7.0255507889297826e+05  1.3687259931180661e+06  8.8201537710693153e+05  4.9535335924185277e+05  3.7050402837021358e+05  1.9099434737930927e+05  1.8204592522061104e+06  1.6410931322372844e+06  1.7540342481989767e+06  1.5961229511998140e+06  1.5280055253015594e+06  6.9510518401673459e+05  7.7452375786163425e+05  1.4574123871246104e+06  3.4483204805808648e+05  2.1490431326643531e+06  2.2933079105108567e+06  2.0723568511529075e+05  2.1215570886013424e+06  6.1928322818204283e+05  1.7183095526291532e+06  1.0013075082786791e+06  1.2936217099044891e+06  6.0266790317964891e-02  1.8521011009078063e+06  1.8889785354730650e+06  1.2093950717762331e+06  8.8449235450824630e+05  9.7498698847866000e+05  1.2440462344522625e+06  7.6133806466017652e+05  1.6339588196495995e+06  2.0775150713358184e+06  1.0878267462512443e+06  6.7699862527522445e+05  1.1608769724328392e+06  1.6176409832648295e+06  9.0403216835731489e+05  1.1518855060616990e+06  6.0176172568382509e+05  5.6857529565914779e+05  1.3612411109304652e+06  6.6855106552717494e+04  1.1103609219760229e+06  1.9903512285662007e+06  1.0268402319921679e+06  1.4667945055030657e+06  1.0696310396888822e+06  1.6892926721497935e+06  1.4750430949962037e+06  1.3222388158934135e+06  1.7106750222867117e+06  5.8296514909601444e+05  1.5741838878669783e+06  1.0391484587487401e+06  9.8121089598831662e+05  1.9166443594864202e+06  1.3114969875459087e+06  1.2426893718300597e+06  1.3199283765348198e+05  5.9120409257359989e+05  1.7667917404324068e+06  1.2281497637470050e+06  1.0264362502460108e+06  1.4451769398372187e+06  1.2551365396307190e+06  8.2490757390240778e+05  1.7026560530139939e+06  1.6816455845380407e+06  5.4687213426460243e+04  4.2609899274288386e+05  1.8382122231285209e+06  7.9333728244624508e+05  1.5088802874977610e+06  1.7677172584334738e+06  1.8964014636135183e+06  1.8299211826052545e+06  7.9458619781858497e+05  9.4651224019677704e+05  1.3997442116450162e+06  1.4039868640361887e+06  1.6440637990244097e+05  4.8164324867601163e+05  3.7649680707375228e+05  4.4165022019949788e+05  1.1288767312872394e+06  1.0118484838419183e+06  1.3159389370483006e+06  1.1948307837868335e+06  1.4037383606382799e+06  1.1212788096491669e+06  5.2414198179089006e+04  1.5631677590135924e+05  1.7308237480969480e+06  4.9335653859923407e+05  7.1047483713253180e+05  2.7403237661351572e+05  1.5264366095710911e+06  3.8395074548019760e+05  1.5848942761524718e+06  4.7760546768248815e+05  9.3324911717396579e+05  1.8158697760395051e+06  1.5865887121869854e+06  1.3418481983892412e+06  1.2666812567609106e+06  1.2670178073026403e+06  1.0395442580355180e+06  1.6928756203506060e+06  1.5178168828050178e+06  7.2602486659823917e+05  3.3585052830687747e+05  8.4267883221683104e+05  9.9131264107889880e+05  1.7331334168613984e+06  1.7760256265752933e+06  4.2146498974908516e+05  1.6584491005373243e+06  6.4533604508397030e+05  1.4087959726705854e+06  9.8773572235200368e+05  9.1509867321196490e+05  1.9598298468227151e+06  3.3604902394235757e+05  1.1567507328834813e+06  1.2037128974087632e+06  1.0799253565293208e+06  2.0140202884330417e+06  1.0715276106226712e+06  1.9884958528499252e+06  1.9285305493541740e+05  2.0362535012743752e+06  2.5284552657700240e+05  2.1718835602599233e+06  2.2137723466681000e+06  1.1891552350503537e+06  9.5048753053658525e+05  8.6012426129092614e+05  7.2730161786982580e+05  8.4003239679318829e+05  6.1730917412341584e+05  1.8775910996412290e+06  1.5119508878098228e+06  3.7928577442539361e+05  1.9223659300625802e+06  1.4717229149190600e+06  5.2154942347889906e+05  2.1592592742940364e+06  3.4694687884370120e+04  1.4675793195212132e+05  2.0713457690494012e+06  1.6456680106637343e+06  1.1112139257382273e+06  1.0179034847489416e+06  2.7819651807205309e+05  6.2933446395210468e+05  1.7376148291410210e+06  5.7976133256515197e+05  2.7716394054003671e+05  3.2473602254138264e+05  3.8578700879232907e+04  9.9561360921773332e+04  1.0525570582413158e+05  1.0569260081188534e+06  1.2944725457928921e+06  7.8168071341571864e+05  1.9381043068304183e+06  1.2370065114358615e+06  4.2856935952687010e+04  1.8256265813348067e+06  1.8380772415299681e+06  3.7756131077434577e+05  5.0520831641708774e+05  1.7461528010896340e+06  1.6206633987719126e+06  2.4931536374202790e+05  1.4592166637706072e+06  1.8301743933401552e+06  6.6239307997032790e+05  9.9182895852680493e+05  8.9013135927128675e+05  1.6939194985922717e+06  1.0830997654004920e+05  1.2487189838346988e+06  2.4498237599311362e+05  1.3034305038122763e+06  1.3846381203389426e+06  1.8705074541970037e+06  9.1643665339894535e+05  1.9191703113343214e+05  4.9894024698796577e+05  2.3501978413884155e+05  1.5760150456185197e+05  1.7536625921336217e+06  1.8130423256532322e+06  7.6372500303192908e+04  1.1820334156786502e+05  8.6674752342713950e+05  1.5912037957022865e+06  1.3270950251492423e+06  1.9735043925897318e+06  1.8684487841634315e+06  1.3233313462952867e+06  1.2838773803574240e+06  2.0698103843241343e+06  1.7823576030218287e+06  1.5744811532008236e+06  2.9370793943639839e+05  1.5368419782687963e+06  1.2091333326632024e+06  1.7973011727248717e+06  6.7076232918776246e+05  5.8693296376005956e+05  5.4261797734984348e+05  1.7320901280923584e-01  1.5679501375966161e+06  -1.0307575783751455e-01  4.0523209725906339e+05  9.8273444790053205e+05  4.4794744122592534e+05  1.7064761670258215e+06  2.0857865914708304e+06  1.3506689501670424e+06  1.7413865418497480e+06  1.2410571611781344e+06  1.0746542358942819e+06  6.6929634083970962e+05  7.3436447934528044e+05  1.6173852354070253e+06  8.0371019203439716e+05  1.0944983781203169e+06  3.7832067718954851e+04  9.3856228178880422e+05  1.3944908939848510e+06  1.0105859105939710e+06  1.4078727110733818e+06  1.3659092018908556e+06  1.9977827722468532e+06  3.8923280609962915e+05  9.4862506037186214e+05  1.2358336129628371e+06  1.7287101990431905e+05  1.9047497670804785e+05  3.3589183940420946e+05  5.1753452915804181e+05  5.1509372778960026e+05  1.4255397409237688e+06  4.6173513055409311e+05  1.0412598441526755e+06  1.6204470769387742e+06  6.7990989590050583e+05  7.3051226334670093e+05  1.6237838278009072e+06  1.5604151818912590e+06  1.1213793598740173e+06  7.0631793297633773e+05  1.1862116573537760e+06  1.4895694411470050e+06  2.0654636682147227e+05  1.8223346577045214e+06  1.7649008095235482e+06  1.7878629044202478e+06  1.7851974560595280e+06  1.5622325208847164e+06  1.5146807579691941e+06  1.4862206744950695e+06  1.6590331937685257e+06  8.0845823128308007e+05  8.6948558981290623e+05  1.9256770509140089e+06  1.1611102719227814e+06  1.1805673935226460e+06  1.2431833370379400e+06  1.0641774418766228e+06  1.5138294604894745e+06  1.4385968831395393e+06  1.9449331491164733e+06  3.5792042213717790e+05  1.0700229549024459e+06  1.1749196372743619e+06  1.1325294188927361e+06  1.1801691674816734e+06  1.1500795102796247e+06  1.6561749519000549e+06  1.2797436358661996e+06  1.2614162531601361e+06  1.9110464155825726e+06  1.8441620353117909e+06  1.7742487197758892e+05  9.5833302302240336e+05  1.3451512129214965e+06  1.7854441545521098e+06  1.5508839537048517e+06  3.1419615088835311e+04  1.4759733762460686e+06  5.5607393500019715e+05  1.6837556798686986e+06  1.5702729819762234e+06  1.5934784848420294e+06  1.6689372596474092e+06  4.5730161052091519e+05  7.6029045665844961e+05  7.8682988882596954e+05  9.1268284700267203e+05  1.8188470270457591e+06  1.8571329268039527e-01  5.1661527211397456e+05  1.9336991615411560e+06  2.2454844302941863e+06  2.3369509070353126e+06  2.4160739300181973e+05  2.0849227536454750e+06  2.0166049782972680e+06  1.6126593310686543e+06  1.8845537134722380e+06  1.4652818122033379e+06  5.8518571194927592e+05  1.3267549636111492e+06  9.7235316231489822e+05  1.0083650128829329e+06  1.7517001415513100e+06  1.0294287576576952e+06  1.5392822317124458e+06  7.2066282308258058e+05  2.2431418092553671e+06  6.0266790317964891e-02  1.0393596595214508e+05  3.1047575517368224e+05  6.5320465036618407e+05  8.5082667597792763e+05  1.9497567874422299e+06  3.0146378983874916e+05  1.6028971172326975e+05  9.8968658377154055e+05  1.8980117168583658e+06  1.2891607896473040e+06  4.6606232210830413e+05  4.7632815301802009e+05  1.2268897291609491e+06  1.2543259877346829e+06  9.2898781086063478e+05  3.4202651560875405e+04  4.1579902437116357e+05  1.6568311260679485e+06  7.4052313261588966e+05  8.0445307702710212e+04  7.9429868489828880e+05  5.7490616068735800e+05  5.5172211619129789e+05  1.9976722229760347e+06  3.5673215157982765e+05  8.9162053186530410e+05  7.6795224577956856e+05  2.0415095330156481e+06  2.1412290792939505e+06  2.1015489103872497e+06  7.6190960337820684e+05  1.3304676340239386e+06  8.2709080424609594e+05  5.9832388248716050e+05  5.8719258044306061e+05  5.4910529963576549e+05  1.8896554153363602e+06  1.1368671287664857e+06  1.4339762581896947e+06  9.9473794880632788e+05  1.7453402510733134e+06  1.1101309956513115e+06  8.7173691317541862e+05  1.0342111448735256e+06  1.3692945845657855e+06  1.5447252644715395e+06  1.6279459353654028e+06  1.3748615074174597e+06  1.1514051350591518e+06  7.1896022747104929e+04  1.7110617931726137e+06  5.3488138732551213e+05  1.8631085576600330e+06  1.0205176402385663e+06  1.1811394617397906e+06  1.3920341592638141e+06  2.9528944958628539e+05  4.1733522379002505e+05  1.1272065209220699e+06  1.8665352108498637e+06  1.6158980972660559e+06  1.9807100782318569e+06  2.0429953717338978e+06  1.9331020008693477e+06  1.2814378944773573e+05  2.2109885356266666e+06  8.6442337557351706e+05  8.1116272828120110e+05  1.0974890381776032e+06  1.8335646657634268e+06  1.0449597851848921e+06  1.0897217529212032e+06  1.2825846551107117e+06  1.8830595831220422e+06  1.2124932699187971e+06  3.0199702115198242e+05  1.7748282471092364e+06  2.7360273482082335e+04  2.2150282824809363e+05  7.1047297008641501e+04  2.2738751556259725e+05  9.6472193825242331e+05  4.3316570631423610e+05  1.4846798610317563e+06  7.2404978191446885e+05  1.0144640677113322e+06  1.2767714415099472e+06  1.5423770375363510e+06  1.1323398817912729e+06  1.0986426940804173e+06  6.0264919038577122e+05  9.1232024140040355e+05  1.0414855924826507e+06  1.0536551334899168e+06  1.7207133926214545e+06  1.0629951516233331e+06  3.1037321032337804e+05  1.2294574221712337e+06  1.5483859106914422e+06  1.7067719858603347e+06  2.1360980114422049e+06  1.2646090530046071e+06  1.6738605558993635e+06  7.1763474787067075e+05  1.2807960626464107e+06  1.3187255466631753e+06  1.6064705898233766e+06  1.5428639809158347e+06  1.3799490321223775e+06  4.0283819869914121e+05  1.0003933372558809e+06  9.5883889568882587e+05  6.6484615466443973e+05  1.6682270736460758e+06  1.7073119063555696e+06  1.2118992153070609e+06  9.4312755865343276e+05  1.4891505698571776e+06  1.9648233400121492e+06  1.3038690597699070e+06  1.2564257325257126e+06  1.4435230401427348e+06  1.3447102300481691e+06  6.5330517928399821e+05  9.9763859338368336e+05  1.2697924745379735e+06  1.2588378348951370e+06  5.5938809820788912e+05  6.0638351733857486e+05  1.6731340670563334e+06  1.7479985670140961e+06  1.6979308379096072e+06  6.9355724184466386e+05  1.0906038658816095e+06  2.7153200755819867e+04  7.5754582251992810e+05  6.0795953744792065e+05  6.0507119301129540e+05  1.7743889603273747e+06  5.7129059349632950e+05  6.9566960180667415e+05  1.0353726273612210e+06  1.0232123056757677e+06  1.0482678084984302e+06  9.6165114753503096e+05  9.1984455293004133e+05  1.1822292078054398e+06  1.2297318602804670e+06  1.3432768129121496e+06  1.0295266419846113e+05  1.0627337441838465e+06  1.0498545547527776e+06  1.0143557707655011e+06  1.2224681899242683e+06  1.2020817005833650e+06  1.2481609208652868e+06  6.4562861412119470e+05  4.0754628193653811e+05  3.9034605747872469e+05  3.4499163946212584e+05  1.1639364347996605e+06  1.8087759861102442e+06  4.6740997063158045e+05  3.1961149710910855e+05  1.4506874037666430e+06  8.4758513325416762e+05  1.7406528892400218e+06  5.0660643263306050e+05  6.4953314687766577e+05  1.2466777193561792e+06  3.9916409422241774e+05  1.1859042754558779e+06  1.4205027342519939e+06  1.3911406272894978e+06  1.1497897267456742e+06  4.5496366531551041e+05  1.7303750659663859e+06  1.7156204854174736e+06  1.6042180674005364e+05  1.0808108837132722e+06  1.3045935927291615e+06  1.0163806874356091e+06  1.3111678139187428e+06  1.6784973626064053e+06  1.6365885214715463e+05  1.4949704758924525e+06  1.4729827026557338e+06  1.4368862344702114e+06  1.4356173967481176e+06  1.3217088838016955e+05  9.6970676104925910e+05  1.2444104539968155e+06  1.2809840608436782e+06  8.0457298569027591e+05  1.3956059054097196e+06  1.8105018822119497e+06  1.8771098535090415e+06  1.7855465517666675e+06  9.7564268563640246e+05  9.6257470545534359e+05  3.4967878303968825e+05  3.2019782868365292e+05  1.2972240983939060e+05  2.2590976127404455e+05  1.3342462831189146e+06  1.8455350857482501e+06  5.6578808383994689e+05  7.2880001376044602e+04  1.5121551075477547e+06  1.7132082237509976e+06  1.4821270845919801e+06  2.0461895730648909e+06  8.9092064618625236e+05  9.3005692720055301e+05  4.9487690959692490e+05  1.9404044813843332e+06  1.2619550571033154e+06  7.9571315001284517e+05  1.8044669037760524e+06  1.7414847968740340e+06  1.7725263844335934e+06  1.4609562468853763e+06  1.3257895921578840e+06  6.1837190372088295e+05  1.9181889331358936e+05  8.0627314103996172e+05  7.7234816453448671e+05  1.3356963260675010e+06  1.2943643661048077e+06  1.6488851808460469e+06  1.4989797831270816e+06  6.4109032459597453e+05  9.8022947256384091e+05  1.1836514806195865e+06  1.4121855745650837e+06  8.8466779761754244e+05  1.3012632533731363e+06  1.7209489161711726e+06  3.4737741496834089e+05  2.0958077155292390e+06  3.6353910692862701e+05  1.6750412783752300e+06  8.3890457334110828e+05  1.4014304085835402e+06  9.6813317613039317e+05  1.8274326275359753e+06  1.7918337900321886e+06  1.8254043529669680e+06  1.7377890969294645e+06  1.1018480590231197e+06  1.0116300091834923e+06  1.5886226000212121e+06  1.7587694899107974e+06  1.8008378030233819e+06  1.2305299552423034e+06  1.1157536185701715e+06  1.1080217893640199e+06  1.8525018463628604e+06  1.3038094489417598e+06  4.4904071055811225e+05  1.4462860293808111e+06  1.3439273831842872e+06  1.6270272408848412e+06  6.3820857599078084e+05  6.3142256215515058e+05  2.0329321387772504e+06  1.7761343774813924e+06  1.1311678272997073e+06  1.2906037585151407e+06  1.0277543072216236e+06  9.8711532836739998e+05  1.7187952123535031e+06  9.3440398599028855e+05  1.8232930587044570e+06  5.7020793281798389e+04  2.1067391326549561e+06  1.1495366540726735e+06  9.1586609742603265e+05  9.5001962980360899e+05  8.4646598667820648e+05  5.0782650941428373e+05  4.8814194766909996e+05  4.5363004813828261e+05  1.3194409685813764e+06  1.0047847649453214e+06  1.2013925563575139e+06  7.6929689089782431e+05  1.8040583428524484e+05  1.4350998185069729e+06  5.4394839417914234e+04  7.8433341542698327e+04  1.2095169621764056e+06  1.2214788233851125e+06  1.2197752090365901e+06  1.1203961319897799e+06  1.2445021937189668e+06  5.2067743871683575e+05  7.3866716753778537e+05  2.0738865329138862e+06  4.1134999133766344e+05  1.5409104962474308e+06  2.4660970409856716e+05  1.6540475267102278e+06  1.5991165700739485e+06  1.4827395764661508e+06  8.5490615418278996e+05  3.5650316358424502e+05  1.3692439703515003e+05  8.2079441762623203e+04  1.6276642017297121e+06  1.4178118724938163e+06  6.8275287187508098e+05  6.2864362505017372e+05  1.3805833347987798e+06  1.7001677486153110e+06  1.5816845555868065e+06  1.5366867157561081e+06  1.2065733194283845e+06  1.7487667840313090e+06  1.7006105957043178e+06  1.7598146100316248e+06  1.8777117997775478e+06  1.8755173203496870e+06  1.6814427393291283e+06  1.9027249362220557e+06  1.8126386154415107e+06  2.0883213793423952e+05  2.1134403529888787e+05  1.7690960099551541e+05  2.8466683180194217e+04  8.4727613381861907e+05  8.3117419940682454e+05  8.7039790055620403e+05  1.5931931195332773e+06  1.6170298135367082e+06  1.5895440159231070e+06  1.4131870157800112e+06  8.4589089781862882e+05  1.2659309678766902e+06  1.5158808249377403e+06  2.0775970868415030e+05  4.7957763683180843e+05  3.0972372235454503e+05  1.9136643594736797e+06  1.2523494363507503e+05  6.7580050309326348e+05  4.6945270962956664e+05  9.3966812803439726e+05  7.0646433772536600e+05  7.4387153014597343e+05  8.6900293503423134e+04  7.0244760665262851e+05  1.5472105060571937e+06  1.8582068571440710e+06  2.3768957940981345e+05  2.6484077066288254e+05  2.5990039676871014e+05  1.3045275024283542e+06  1.0687986243291358e+06  5.7560432741401158e+05  1.1405929705591155e+06  1.7682874429295331e+06  2.5154954769282838e+05  1.1421278523874970e+06  1.1672924733469582e+06  4.38772438502878