<?xml version="1.0"?>
<VTKFile type="UnstructuredGrid"  version="0.1"  >
<UnstructuredGrid>
<Piece  NumberOfPoints="1981" NumberOfCells="3668">
<Points>
<DataArray  type="Float64"  NumberOfComponents="3"  format="ascii">-2 0.5 0  -2 0 0  -0.5 0 0  -0.4968561049466213 -0.05598223805165387 0  -0.4874639560909119 -0.1112604669781569 0  -0.4719416651541838 -0.1651395309775835 0  -0.4504844339512096 -0.216941869558779 0  -0.4233620996141421 -0.2660160382576682 0  -0.3909157412340148 -0.3117449009293669 0  -0.3535533905932738 -0.3535533905932737 0  -0.3117449009293669 -0.3909157412340148 0  -0.2660160382576683 -0.4233620996141421 0  -0.2169418695587791 -0.4504844339512095 0  -0.1651395309775836 -0.4719416651541837 0  -0.1112604669781573 -0.4874639560909118 0  -0.05598223805165402 -0.4968561049466213 0  -9.184850993605148e-17 -0.5 0  2 -0.5 0  2 0 0  0.5 0 0  0.4968561049466213 0.05598223805165393 0  0.4874639560909118 0.1112604669781572 0  0.4719416651541838 0.1651395309775835 0  0.4504844339512096 0.2169418695587791 0  0.4233620996141421 0.2660160382576683 0  0.3909157412340149 0.3117449009293667 0  0.3535533905932738 0.3535533905932737 0  0.3117449009293668 0.3909157412340149 0  0.2660160382576683 0.4233620996141421 0  0.2169418695587791 0.4504844339512096 0  0.1651395309775837 0.4719416651541837 0  0.1112604669781572 0.4874639560909118 0  0.05598223805165384 0.4968561049466213 0  3.061616997868383e-17 0.5 0  0.1398708344106534 0.05418624992807294 0  0.15 0 0  0.1398708344106534 -0.05418624992807295 0  0.1108513375830988 -0.1010543465469837 0  0.06686075336648065 -0.1342744937032594 0  0.01384025391949536 -0.1493601264442552 0  -0.04104944851081246 -0.1442738464759228 0  -0.09039519545688858 -0.1197025840920358 0  -0.1275325703594421 -0.07896482443160337 0  -0.1474459649525853 -0.02756242767248552 0  -0.1474459649525853 0.02756242767248555 0  -0.1275325703594421 0.07896482443160341 0  -0.09039519545688844 0.1197025840920359 0  -0.04104944851081243 0.1442738464759228 0  0.0138402539194953 0.1493601264442552 0  0.06686075336648074 0.1342744937032593 0  0.1108513375830989 0.1010543465469836 0  -1 0.5 0  1 -0.5 0  -1.25 0 0  -0.5 0.5 0  1.25 0 0  0.4999999999999999 -0.5 0  -1.5 0.5 0  1.5 -0.5 0  -0.875 0 0  0.875 0 0  -1.625 0 0  1.625 0 0  0.6875 -0.2500000000000001 0  -0.6875 0.25 0  -2 0.25 0  1.75 -0.5 0  0.2499999999999999 -0.5 0  -0.3583969912126916 0.25 0  0.3749999999999999 -0.25 0  -1.0625 0.21875 0  1.0625 -0.21875 0  -1.75 0.5 0  -1.25 0.5 0  -1.375 0.25 0  1.4375 -0.21875 0  2 -0.25 0  1.25 -0.5 0  1.7375 -0.2375 0  -1.7375 0.2375 0  0.75 -0.5 0  -0.75 0.5 0  -0.25 0.5 0  -0.1570377317087672 0.3153742794659282 0  0.1249999999999999 -0.3338777090152827 0  -0.8826650943396226 0.3263561320754717 0  0.8826650943396227 -0.3263561320754717 0  1.25 -0.1897321428571428 0  1.4375 0 0  -1.4375 0 0  1.0625 0 0  -1.0625 0 0  -0.6875 0 0  0.6875 0 0  1.8125 0 0  -1.8125 0 0  0.3263011380546194 -0.06940056902730968 0  -1.554017857142857 0.1790178571428572 0  0.08847100915780901 0.3109433440851622 0  -0.2412983234264066 -0.2156373655531345 0  -1.625 0.3744047619047619 0  1.625 -0.3744047619047619 0  0.2743272717766799 0.1698562554772697 0  -0.3279338175957848 0.06764246763930631 0  -1.863068181818182 0.3630681818181818 0  2 -0.375 0  1.875 -0.5 0  -0.05442366733490933 -0.3203147637646457 0  1.321986607142857 -0.3448660714285714 0  1.125 -0.5 0  -1.209821428571429 0.3236607142857143 0  -0.5229484956063458 0.1781011282952406 0  0.9067445847815293 -0.1625224987586892 0  -0.8335714777578845 0.1642411083184135 0  -1.237063437253354 0.1627182813733228 0  -0.4947697009489606 0.3378596801347012 0  0.53125 -0.171875 0  0.5156249999999999 -0.3359375 0  -2 0.125 0  1.873225308641975 -0.1497685185185185 0  0.2341337966231563 -0.1911191776024666 0  -0.625 0.5 0  1.587453076345555 -0.2288757784711196 0  1.8125 -0.3654761904761905 0  -0.3326862624810256 -0.08869875963335262 0  -0.375 0.5 0  1.174048204529175 -0.319244854540162 0  -1.067618031042359 0.3674567846760797 0  -0.96875 0.109375 0  1.481463366596639 -0.3565498074229692 0  1.023503306098383 -0.3576535124663073 0  -0.2265388519390893 0.1866542405407749 0  0.625 -0.5 0  -1.852445652173913 0.1432065217391304 0  -1.375 0.5 0  -1.479101577239454 0.3541992113802732 0  0.2708871299591885 -0.3541935649795943 0  1.520204106978579 -0.109375 0  0.78125 -0.1026731411563172 0  -0.3125 0.3785994323952442 0  0.3749999999999999 -0.5 0  1.141568346088435 -0.109375 0  1.358431653911565 -0.109375 0  1.668712727161379 -0.1246887081867154 0  -1.673050595238095 0.1226339285714286 0  -1.34375 0 0  -1.431523109243698 0.1313182773109244 0  -0.7546231943577876 0.3660317014105531 0  -0.6233296454587935 0.3645528204344609 0  0.7546231943577878 -0.3660317014105531 0  0.6537002726710706 -0.125 0  -0.6441338591766993 0.125 0  1.375 -0.5 0  -2 0.375 0  -1.875 0.5 0  1.625 -0.5 0  -1.625 0.5 0  0.875 -0.5 0  -0.875 0.5 0  0.1249999999999999 -0.5 0  -0.125 0.5 0  2 -0.125 0  -1.125 0.5 0  -1.354082022940739 0.375 0  -0.03500388138134332 0.2732363193989585 0  0.3955099577726473 -0.3752808566622692 0  0.3596026196703111 0.0631070919012526 0  -0.0625 0.394061918116807 0  0.6342080192637126 -0.3582597885274255 0  -1.123666900137815 0.109375 0  -1.744588744588745 0.3803841991341991 0  0.2210084381421171 0.2925777566973838 0  0.8072251313743133 -0.2315819627814412 0  -0.1814335426834733 -0.3282792760620681 0  -0.9356634513979559 0.2218154628239019 0  0.4183753556420685 -0.1414382112841371 0  -0.1238894550978499 -0.2292394949250368 0  0.96875 0 0  1.013652292192466 -0.1102204462032291 0  -0.4393328341626322 0.09834605222123384 0  1.882206434331873 -0.2686982850037661 0  0.1426699461850768 0.2146575767791519 0  -1.886304127069339 0.251758104550396 0  0.2495743011762567 0.06264742837969955 0  -0.78125 0 0  0.04042933102838756 -0.2590839715717854 0  -1.53125 0 0  -0.5823692714154002 0.2663576540687616 0  -0.2594008044921133 0.2871583817002197 0  -0.9375 0.4157678007976423 0  0.9696186653311423 -0.2675997292662616 0  -0.7942971416386473 0.2646257048857303 0  0.06249999999999992 -0.4169388545076413 0  0.1874999999999999 -0.4169388545076413 0  -1.562839467699977 0.2864000626355251 0  -0.1875 0.4157529178973974 0  -0.1223698320396133 0.2179970721626365 0  1.770639498024741 -0.1399156735731578 0  0.9367002721196375 -0.4157324987180338 0  -1.90625 0 0  -0.2298618769854927 -0.08904896555277285 0  0.1397131066802196 -0.232031643549068 0  -0.4375 0.420861596936145 0  -0.3483554784186823 -0.1925292675214375 0  0.59375 0 0  -1.327632151430252 0.1057660692693074 0  -0.9830051201906395 0.3115204496273563 0  1.90625 0 0  1.236354269160391 -0.3993990952861421 0  -1.1875 0.4214935578661845 0  0.5625 -0.4247705455161483 0  -0.7349377422908023 0.1635199768201956 0  -1.583328550170068 0.08705835459183674 0  -1.640104497493491 0.2259991665335075 0  -1.467109316827997 0.2210671404637805 0  0.5896070530325394 -0.2690578560650788 0  0.3266472067106532 -0.167734762534917 0  -0.59375 0 0  -0.546875 0.08448914438556519 0  1.71875 0 0  1.156078290691277 -0.2031315651260504 0  1.337704613095238 -0.2433035714285714 0  1.236312294597949 -0.09486607142857142 0  0.1642123379155914 0.3701207892454864 0  0.2345507206108115 -0.04384512844718241 0  -0.4048861533022036 -0.02273791864794379 0  0.03798857341016919 0.3979165301900267 0  -0.4006523628802168 0.334179001454817 0  -0.1135990210174155 -0.393340785880617 0  1.906775738056482 -0.3598876272511091 0  1.720393990929705 -0.4044642857142857 0  -1.71875 0 0  1.15625 0 0  0.78125 0 0  1.53125 0 0  -0.96875 0 0  1.34375 0 0  -1.15625 0 0  1.142828909845958 -0.4078056758504979 0  0.40697192225457 -0.01923608979840619 0  -1.767708120728825 0.08966855818957545 0  -0.6882384924227143 0.4308047125515967 0  -0.3636785153797087 0.1553944795036722 0  -0.2291274285977749 0.08616080495998404 0  -0.281012338688557 -0.01202669255906096 0  0.3108677056378212 0.2586754570559801 0  -1.151751953043632 0.196872287087452 0  -0.5625 0.4330368698813529 0  0.6875 -0.4328910527173583 0  1.405021000845949 -0.3057191080886871 0  0.546875 -0.08025568181818182 0  0.3713523302229579 0.1599284134935842 0  -1.12196127795563 0.2911449911382941 0  -1.276991293863022 0.2522534749828799 0  1.255195006158927 -0.2798057638555942 0  -0.8388532729558951 0.4114132763440825 0  0.8388532729558953 -0.4114132763440825 0  -0.4557763550657601 0.2486174768248819 0  0.2049883534781638 -0.2934473685517857 0  0.3226059585583683 -0.4273378498573185 0  -1.426982449282418 0.4270508114904024 0  1.397702183984896 -0.4056170514003312 0  0.05467855045156804 0.2285245978493705 0  -0.272823163096586 -0.3046204408381326 0  -0.02656096412551515 -0.4126877256833236 0  -1.807235369718798 0.2933328120993839 0  0.1906985117418444 0.1399478964461678 0  -1.688085622354259 0.3115694793217502 0  1.659329587961023 -0.2879395206246994 0  -1.5625 0.437202380952381 0  1.546313524296827 -0.4210926184041992 0  -1.813279560389256 0.4363923695021056 0  -1.926524548924358 0.4265245489243581 0  -0.1751061200004134 -0.1578066000831913 0  0.2891187728554643 -0.268298186700636 0  0.4721679687499999 -0.2490234375 0  0.7276683718449491 -0.1720688736051095 0  0.4744973194747868 -0.4152356216385488 0  0.9322020604693165 -0.07914563824612769 0  -1.275602471792197 0.4154857864535745 0  -0.828125 0.07552171441918698 0  1.3125 -0.5 0  -1.931646474339171 0.178059096704675 0  -0.7167268019830385 0.08016211756451477 0  1.060414578698922 -0.4368616551407768 0  -1.6875 0.5 0  1.9375 -0.5 0  1.739833210773432 -0.3220974693894793 0  -2 0.3125 0  -1.207440692409131 0.07848980221212992 0  -0.04055821595704934 -0.2377097412335854 0  0.1922531441870086 -0.1190381071624572 0  1.509237778147088 -0.2717758217431455 0  0.8901922386429052 -0.2437760747352658 0  -1.498530569603453 0.07867879855510211 0  0.9849923856958628 -0.1870513965806273 0  1.515605916195201 -0.1906351698786736 0  1.439317880445072 -0.08458133750179306 0  1.932491348856277 -0.2050969650933771 0  1.828075655121533 -0.08087981225769847 0  1
[...]
<PointData  Vectors="f_39"> 
<DataArray  type="Float64"  Name="f_39"  NumberOfComponents="3" format="ascii">-1.9536874493933612e+05 -1.8465028500281307e+06 0.0000000000000000e+00  6.5112166822466148e+04 -4.5914781970342374e+04 0.0000000000000000e+00  7.6811375425297534e+05 -4.6381818694016914e+05 0.0000000000000000e+00  3.5570217499071232e+05 -6.9054164201960480e+05 0.0000000000000000e+00  2.1354078201840000e+05 -5.4094332400784909e+05 0.0000000000000000e+00  1.7836735186281148e+05 -4.0768185016140615e+05 0.0000000000000000e+00  1.8461987970447456e+05 -3.4956284197565261e+05 0.0000000000000000e+00  2.1431730711496214e+05 -3.0707762747689377e+05 0.0000000000000000e+00  2.2291872589846267e+05 -2.7274637582591828e+05 0.0000000000000000e+00  2.3916538509083522e+05 -2.4901646056446520e+05 0.0000000000000000e+00  2.7537548955111008e+05 -1.9742768071789923e+05 0.0000000000000000e+00  2.8269125742146850e+05 -1.7681840549086215e+05 0.0000000000000000e+00  3.0111540482438059e+05 -1.4578680839970958e+05 0.0000000000000000e+00  3.1751068381278845e+05 -1.1656340094302189e+05 0.0000000000000000e+00  3.2989863258299918e+05 -9.4944274753019781e+04 0.0000000000000000e+00  3.6062149976849329e+05 -4.4720218521185823e+04 0.0000000000000000e+00  3.9596495308442164e+05 -3.2388023559463421e+04 0.0000000000000000e+00  7.0685413738578395e+05 1.2222315857885636e+01 0.0000000000000000e+00  7.0696159978821478e+05 -1.3678223133810000e+01 0.0000000000000000e+00  5.5292094287887530e+05 -6.4151612399548909e+05 0.0000000000000000e+00  3.1182086718689860e+05 -6.0405701040242240e+05 0.0000000000000000e+00  1.8333646243176208e+05 -4.9880001797107264e+05 0.0000000000000000e+00  1.6576641012888687e+05 -4.2634784589080000e+05 0.0000000000000000e+00  1.8374960481071749e+05 -3.5614654682991724e+05 0.0000000000000000e+00  1.9857412701080937e+05 -3.0610748224120057e+05 0.0000000000000000e+00  2.3348890799263367e+05 -2.6397768670759868e+05 0.0000000000000000e+00  2.4698330543866262e+05 -2.3832498119461141e+05 0.0000000000000000e+00  2.6450102388155204e+05 -2.0663126404011293e+05 0.0000000000000000e+00  2.7036347180463839e+05 -1.8612275069218682e+05 0.0000000000000000e+00  3.0449449999499851e+05 -1.3918089892612735e+05 0.0000000000000000e+00  3.1131293732615840e+05 -1.1417331823396742e+05 0.0000000000000000e+00  3.3442716637520987e+05 -8.2064360357208789e+04 0.0000000000000000e+00  3.4630681956024742e+05 -6.4807110735564951e+04 0.0000000000000000e+00  3.8881529771915177e+05 -2.7999545367761675e+04 0.0000000000000000e+00  3.2825164501927007e+05 -5.0550800027835596e+05 0.0000000000000000e+00  1.9076751099365792e+05 -4.0226833581347950e+05 0.0000000000000000e+00  1.5892350647701175e+05 -1.4284490440683314e+05 0.0000000000000000e+00  2.7100351949376450e+05 3.1322234648561589e+04 0.0000000000000000e+00  4.8928440644319908e+05 1.0472552591357134e+05 0.0000000000000000e+00  6.6521551389200496e+05 2.4182601070032069e+04 0.0000000000000000e+00  6.4906843077242549e+05 -2.8331243456703192e+05 0.0000000000000000e+00  5.4380251739641430e+05 -4.3656036965634394e+05 0.0000000000000000e+00  3.9027810706090636e+05 -4.8454294239982072e+05 0.0000000000000000e+00  1.9797354907372437e+05 -4.1404551906245691e+05 0.0000000000000000e+00  1.1479934896591504e+05 -2.7392167083284515e+05 0.0000000000000000e+00  2.1217515807382888e+05 -2.6695474598848185e+04 0.0000000000000000e+00  3.6117522783304454e+05 8.8625166787513692e+04 0.0000000000000000e+00  5.5717637362288800e+05 9.1238324997047370e+04 0.0000000000000000e+00  6.8216483739089814e+05 -1.4727301038809930e+05 0.0000000000000000e+00  6.6700310990846739e+05 -2.4812643697477682e+05 0.0000000000000000e+00  4.5486637195181323e+05 -5.0284450322834152e+05 0.0000000000000000e+00  6.6483454143108637e+05 -2.4204448733385084e+03 0.0000000000000000e+00  6.9894166616819007e+05 -1.8442808351397484e+03 0.0000000000000000e+00  6.5783398725457140e+05 -2.7900910102654220e+03 0.0000000000000000e+00  5.7189991221407882e+05 -1.3573098492493624e+04 0.0000000000000000e+00  7.0870688382668735e+05 -4.0487641678098117e+02 0.0000000000000000e+00  6.0220043879293802e+05 -1.5133375470943683e+04 0.0000000000000000e+00  7.3801316938355693e+05 -1.3672443628577936e+04 0.0000000000000000e+00  7.0655314326500648e+05 -1.1758220251059628e+02 0.0000000000000000e+00  6.8442560104878468e+05 -3.9461743266375925e+03 0.0000000000000000e+00  7.2562606250225834e+05 -4.4907481687852733e+03 0.0000000000000000e+00  5.4939684234868910e+05 -2.0097627820055586e+04 0.0000000000000000e+00  7.0707472304564831e+05 -3.4867594985764690e+01 0.0000000000000000e+00  6.9465223103721847e+05 -5.7492733824074254e+04 0.0000000000000000e+00  6.5984765912416950e+05 -4.5744728923884883e+04 0.0000000000000000e+00  1.0031932928569301e+05 -6.3951894580296683e+05 0.0000000000000000e+00  7.0686265425551136e+05 -6.1811112812002740e+01 0.0000000000000000e+00  4.9665702309157065e+05 -8.1662971040422826e+03 0.0000000000000000e+00  5.0773471029883833e+05 -1.1182784045050750e+05 0.0000000000000000e+00  5.3316289998517046e+05 -1.2455014695954470e+05 0.0000000000000000e+00  6.6932536355637875e+05 -8.9774449653026677e+03 0.0000000000000000e+00  7.0767483774151513e+05 -5.6602563873856398e+03 0.0000000000000000e+00  1.0415838299544828e+06 -7.2152306000485536e+04 0.0000000000000000e+00  6.8066261541392480e+05 -4.4685558844292482e+03 0.0000000000000000e+00  6.6874049568401382e+05 -2.9241876236913326e+04 0.0000000000000000e+00  7.0703695381900156e+05 -5.3691238799095402e+02 0.0000000000000000e+00  7.0691531196908711e+05 -1.1246864946229211e+01 0.0000000000000000e+00  7.0533492080826079e+05 -3.5673135935310233e+02 0.0000000000000000e+00  7.0689605280017643e+05 -1.0091580293062243e+02 0.0000000000000000e+00  5.9094956285409816e+05 -2.5728318810037975e+05 0.0000000000000000e+00  6.7228198986954393e+05 -4.9850891962172127e+03 0.0000000000000000e+00  6.4163658532642969e+05 -4.7923174282353257e+03 0.0000000000000000e+00  4.8475139670015773e+05 -1.0150907339539392e+04 0.0000000000000000e+00  4.5392049398429377e+05 -4.2458634397207730e+04 0.0000000000000000e+00  4.6346080541011313e+05 -4.6680582592657920e+04 0.0000000000000000e+00  6.6227804045370244e+05 -1.2532151268064077e+04 0.0000000000000000e+00  6.9856419602842222e+05 -1.3813418220583815e+04 0.0000000000000000e+00  7.0740759326175216e+05 -1.7118862952564998e+03 0.0000000000000000e+00  7.0743439978442714e+05 -1.3236399307361265e+02 0.0000000000000000e+00  6.2937053165518097e+05 -6.6169582094348880e+03 0.0000000000000000e+00  7.1269513813743624e+05 -1.0651377641658696e+03 0.0000000000000000e+00  6.7029076673230878e+05 -1.5628846321770613e+03 0.0000000000000000e+00  7.2627207166347874e+05 -1.6014733321353027e+04 0.0000000000000000e+00  7.8553577345279197e+05 -2.0117631618533880e+04 0.0000000000000000e+00  7.0705644411769148e+05 4.5647194370619147e+01 0.0000000000000000e+00  3.5217812319450988e+05 -4.1031242572679126e+04 0.0000000000000000e+00  4.0912361869325361e+05 -2.9426378395152604e+05 0.0000000000000000e+00  6.2878305107351486e+05 -7.0861599817374925e+04 0.0000000000000000e+00  4.2597036386157363e+05 -1.5920004575988388e+05 0.0000000000000000e+00  3.3718489938640897e+05 -3.0970096832155710e+05 0.0000000000000000e+00  7.5431959672328457e+05 -1.1735809955416583e+05 0.0000000000000000e+00  7.0680275426193746e+05 -1.5425590911417069e+02 0.0000000000000000e+00  3.2252535574617056e+05 -3.5407854068870674e+05 0.0000000000000000e+00  4.0814520250499086e+05 -2.7644091848281352e+05 0.0000000000000000e+00  8.5477950176325557e+05 -8.1648528815075767e+05 0.0000000000000000e+00  7.0687413504271337e+05 -2.8977456094430021e+01 0.0000000000000000e+00  7.0689952231710660e+05 2.9347578596068833e+00 0.0000000000000000e+00  4.4332891996138397e+05 -1.3379805399230547e+05 0.0000000000000000e+00  7.0628992485294724e+05 -8.9191130768604705e+02 0.0000000000000000e+00  7.0330128076679492e+05 -9.0043696102865647e+02 0.0000000000000000e+00  6.7276251355496200e+05 -1.1431360274186760e+04 0.0000000000000000e+00  6.4543713512188848e+05 -1.3372432989351053e+05 0.0000000000000000e+00  7.1454827514940721e+05 -1.3991005210022284e+04 0.0000000000000000e+00  6.7824823052694276e+05 -1.9271712247144213e+04 0.0000000000000000e+00  6.6419227383773471e+05 -1.2717193949137525e+04 0.0000000000000000e+00  5.8313246289123001e+05 -5.9338022698133631e+04 0.0000000000000000e+00  6.8834097256011190e+05 -1.5446730659016615e+05 0.0000000000000000e+00  6.1193065518163226e+05 -6.5836105032721345e+04 0.0000000000000000e+00  8.6239012194280163e+04 -2.4952600410342269e+05 0.0000000000000000e+00  7.0693172579456435e+05 -3.6726494934585709e+01 0.0000000000000000e+00  4.1993010249417287e+05 -9.8923467992413483e+04 0.0000000000000000e+00  6.1378372397257551e+05 -8.9695047296579160e+03 0.0000000000000000e+00  7.0695007001081156e+05 -2.1137193723342432e+02 0.0000000000000000e+00  7.0684532868252660e+05 -4.0190789182765315e+01 0.0000000000000000e+00  3.0225823805530980e+05 -3.9575603505306190e+05 0.0000000000000000e+00  5.2636521733151283e+05 -1.3250047202379819e+04 0.0000000000000000e+00  7.0561247345321602e+05 -2.5183030920546989e+03 0.0000000000000000e+00  6.6926528834041243e+05 -7.1637364382338183e+03 0.0000000000000000e+00  6.7453540209185879e+05 -7.4028768638388028e+03 0.0000000000000000e+00  7.0663082248833973e+05 -3.3988155705112649e+02 0.0000000000000000e+00  7.0270234615885851e+05 -5.3139480474642869e+03 0.0000000000000000e+00  3.9117990258853743e+05 -9.0054275875573512e+04 0.0000000000000000e+00  6.4480486369397643e+05 -1.0582348656473661e+04 0.0000000000000000e+00  3.2007305887933658e+05 -2.3141937255298503e+05 0.0000000000000000e+00  6.9775669438077463e+05 -6.4054069058754485e+03 0.0000000000000000e+00  7.0317229259009857e+05 -4.6609884444337658e+04 0.0000000000000000e+00  4.9843632008001278e+05 -5.9819435972624109e+04 0.0000000000000000e+00  7.0713035972812597e+05 -2.3235340344028597e+02 0.0000000000000000e+00  7.3336666117576975e+05 -2.5043944308176018e+04 0.0000000000000000e+00  4.9699418346021173e+05 -4.7012501103400391e+04 0.0000000000000000e+00  5.4701815120429371e+05 -1.1047959959609267e+04 0.0000000000000000e+00  7.0949483744617284e+05 -2.3167165245689034e+03 0.0000000000000000e+00  7.0760156362831360e+05 -6.0790835062711517e+02 0.0000000000000000e+00  7.0699512146608182e+05 -1.0393270250954863e+02 0.0000000000000000e+00  5.4226309727603116e+05 -1.1037915539418634e+05 0.0000000000000000e+00  6.4639025170589832e+05 -5.0596982181058729e+03 0.0000000000000000e+00  6.4129424082073115e+05 -2.8388360519704875e+04 0.0000000000000000e+00  6.4749290056057880e+05 -1.9357828855897329e+04 0.0000000000000000e+00  6.2219627540036326e+05 -3.6994429430505552e+04 0.0000000000000000e+00  6.8045085037045553e+05 -2.4204740531379972e+04 0.0000000000000000e+00  7.4335703222437447e+05 -7.4147482742067266e+04 0.0000000000000000e+00  7.0912360365643841e+05 -6.4709989510934065e+04 0.0000000000000000e+00  7.0607566469996003e+05 -2.0806516957591606e+02 0.0000000000000000e+00  3.0129843499518279e+05 -1.2513270964624428e+06 0.0000000000000000e+00  1.1876633823611720e+06 -9.9959293002512329e+05 0.0000000000000000e+00  7.0677407883839053e+05 -4.7782648850560044e+01 0.0000000000000000e+00  8.1738103615818219e+05 -3.5495079284461019e+04 0.0000000000000000e+00  6.9095908309260756e+05 -3.8760551286016798e+03 0.0000000000000000e+00  6.5706276509171131e+05 -2.4304832047314153e+03 0.0000000000000000e+00  4.5231001039075101e+05 -8.2185796564836783e+03 0.0000000000000000e+00  4.4196156675402430e+05 -1.1698610880308135e+04 0.0000000000000000e+00  7.0692932367704401e+05 8.4923472735418244e+00 0.0000000000000000e+00  6.7219638581166451e+05 -1.9358135933550204e+03 0.0000000000000000e+00  6.8682121902537043e+05 -1.9992645815781991e+04 0.0000000000000000e+00  4.8246208072952786e+05 -5.7206785786981985e+04 0.0000000000000000e+00  5.5502771659736324e+05 -5.5019321582157230e+04 0.0000000000000000e+00  3.2207296784310951e+05 -4.2012627405190468e+05 0.0000000000000000e+00  4.3630688947969151e+05 -4.4560743179387573e+04 0.0000000000000000e+00  6.5879631924775045e+05 -4.2562496435152345e+04 0.0000000000000000e+00  6.6740155987551424e+05 -6.3176627387858171e+03 0.0000000000000000e+00  8.6937312177530816e+05 -2.8230573334252543e+05 0.0000000000000000e+00  3.4536148424683098e+05 -2.3755479110651542e+05 0.0000000000000000e+00  7.0818309241411753e+05 -2.7192434873761835e+04 0.0000000000000000e+00  3.5257570646745805e+05 -2.0168877820117318e+05 0.0000000000000000e+00  6.7062814592199528e+05 -1.2639343638127839e+04 0.0000000000000000e+00  5.6895696821384551e+05 -2.4315963497407536e+05 0.0000000000000000e+00  4.4919897454912483e+05 -2.5738856080340766e+05 0.0000000000000000e+00  7.1852857428655121e+05 -2.6236575998132907e+03 0.0000000000000000e+00  7.1274354421300441e+05 -5.2324973532724216e+03 0.0000000000000000e+00  5.8899352170430264e+05 -2.7683991476737452e+05 0.0000000000000000e+00  7.0690246518577717e+05 -3.3742502122248979e+01 0.0000000000000000e+00  4.5685355956466304e+05 -2.8273597343184188e+05 0.0000000000000000e+00  3.6736058152645995e+05 -5.2570449514161539e+05 0.0000000000000000e+00  3.0480509009687207e+05 -4.0017609269736125e+05 0.0000000000000000e+00  6.9955041734981048e+05 -6.4311855698924055e+03 0.0000000000000000e+00  5.0343457691226690e+05 -5.7391732141534507e+04 0.0000000000000000e+00  5.9868481588881719e+05 -1.4004458554607507e+04 0.0000000000000000e+00  6.2984252133492252e+05 -7.6149098097673574e+04 0.0000000000000000e+00  4.6673877821288153e+05 -7.3204543970324739e+04 0.0000000000000000e+00  6.6284038481753715e+05 -5.5626378024444675e+03 0.0000000000000000e+00  7.0539596474345599e+05 -1.0188884221163002e+04 0.0000000000000000e+00  6.6547937084695266e+05 -2.5508367210709697e+04 0.0000000000000000e+00  4.3341584470060200e+05 -4.1731332448475107e+04 0.0000000000000000e+00  4.7786571035868512e+05 -2.5329990429292106e+04 0.0000000000000000e+00  6.8240187921947986e+05 -9.1733022240912731e+04 0.0000000000000000e+00  4.6347301547847746e+05 -2.6085375780756465e+04 0.0000000000000000e+00  4.2869785339139722e+05 -1.9990377994775261e+03 0.0000000000000000e+00  7.0695202638475038e+05 -7.0969532364048334e+01 0.0000000000000000e+00  6.9608928510467522e+05 -5.2214829619485572e+03 0.0000000000000000e+00  2.0192806290480503e+05 -5.1870484516269593e+04 0.0000000000000000e+00  3.1014679581400304e+05 -3.9977287899567536e+05 0.0000000000000000e+00  4.5312701813850628e+05 -2.5394049315906315e+04 0.0000000000000000e+00  5.5537113698068669e+05 -3.1467754182741381e+04 0.0000000000000000e+00  2.6575088333739969e+05 -3.4987293073047855e+05 0.0000000000000000e+00  8.9636166481791507e+05 -7.9461979255535407e+04 0.0000000000000000e+00  6.5302191197791998e+05 -1.4218710866999834e+04 0.0000000000000000e+00  6.6701781128728029e+05 -9.7464194389671520e+03 0.0000000000000000e+00  7.0689061014411447e+05 -5.9303767528727356e+00 0.0000000000000000e+00  7.0519170448130695e+05 -1.3203673123877679e+03 0.0000000000000000e+00  6.7547182083600690e+05 -5.8120223757581107e+03 0.0000000000000000e+00  6.2389588483154983e+05 -2.9603764886754525e+04 0.0000000000000000e+00  6.8383866727674927e+05 -3.7380290139002223e+04 0.0000000000000000e+00  5.8704825452308671e+05 -4.9214161101671329e+04 0.0000000000000000e+00  6.2561192130399146e+05 -1.3963682450492503e+05 0.0000000000000000e+00  6.5500063377704960e+05 -5.0084571907652338e+04 0.0000000000000000e+00  6.6297502404252486e+05 -8.2291373533843755e+04 0.0000000000000000e+00  4.7440681856157933e+05 -1.8868112731726386e+05 0.0000000000000000e+00  8.0766548393394426e+05 -5.9317790894684105e+04 0.0000000000000000e+00  7.6432234627629444e+05 -1.5674586390995563e+05 0.0000000000000000e+00  7.0699585618385347e+05 -3.5595387419105428e+01 0.0000000000000000e+00  7.0775699409257271e+05 -3.2062437108369613e+03 0.0000000000000000e+00  7.0690639485907485e+05 -1.0410422372454198e+03 0.0000000000000000e+00  7.0837157699924416e+05 -1.1977316203733617e+03 0.0000000000000000e+00  3.5256556233216735e+05 -1.6479769284162144e+05 0.0000000000000000e+00  2.7882957374289230e+05 -2.4130620620044330e+05 0.0000000000000000e+00  4.0628052420340845e+05 -4.8464383894452429e+05 0.0000000000000000e+00  4.0330373244412983e+05 -7.4279932116247801e+04 0.0000000000000000e+00  5.3898864477227523e+05 -6.9847371300116603e+04 0.0000000000000000e+00  3.6613727988246665e+05 -1.2549051079619600e+05 0.0000000000000000e+00  7.0689807827341394e+05 -2.8960627556254245e+01 0.0000000000000000e+00  7.0681466643320699e+05 -7.0095634462279875e+01 0.0000000000000000e+00  4.5206614558589947e+05 -3.1163357654309577e+04 0.0000000000000000e+00  7.1014091347697086e+05 -5.6560681862904198e+02 0.0000000000000000e+00  7.4212670154189621e+05 -9.0027759771475630e+03 0.0000000000000000e+00  7.0719328902205173e+05 -5.8254463130744142e+01 0.0000000000000000e+00  6.7562448160206713e+05 -2.0148954348577092e+03 0.0000000000000000e+00  7.0790207013257802e+05 -2.2790922992963098e+02 0.0000000000000000e+00  6.6458889806028327e+05 -1.9536579920771896e+03 0.0000000000000000e+00  7.0439123707981908e+05 -1.8337113659426800e+03 0.0000000000000000e+00  4.9889898230262561e+05 -4.4154738872291270e+05 0.0000000000000000e+00  4.3507819576664601e+05 -1.2220454357313368e+05 0.0000000000000000e+00  6.3136948179006320e+05 -1.3174638352941700e+04 0.0000000000000000e+00  4.9515789777307864e+05 -1.8979804638858730e+05 0.0000000000000000e+00  2.9098171144231345e+05 -1.7430910393514443e+05 0.0000000000000000e+00  3.1124442779227282e+05 -3.5878952780048863e+05 0.0000000000000000e+00  2.7077038777499518e+05 -2.8346866957866371e+05 0.0000000000000000e+00  6.6776059469069028e+05 -1.0006196481809999e+04 0.0000000000000000e+00  5.9793207609674416e+05 -2.3893689396875914e+04 0.0000000000000000e+00  6.6536798782770976e+05 -1.7369680636650581e+04 0.0000000000000000e+00  7.0660600802153384e+05 -7.1818485542308019e+02 0.0000000000000000e+00  7.8498940407152672e+05 -2.3435013887938808e+05 0.0000000000000000e+00  2.5709364711322554e+05 -3.8248140605855646e+05 0.0000000000000000e+00  6.6978071709714248e+05 -9.3098720508790575e+03 0.0000000000000000e+00  6.6910636705088988e+05 -1.7599864725659922e+04 0.0000000000000000e+00  7.0654312007944204e+05 -1.7178918598161422e+03 0.0000000000000000e+00  6.5460090421508206e+05 -1.0148791484471403e+04 0.0000000000000000e+00  6.8936375037169864e+05 -1.0763021046484499e+04 0.0000000000000000e+00  5.7043839432520373e+05 -1.2147302649248297e+05 0.0000000000000000e+00  4.6879904856662167e+05 -6.2074669855595384e+04 0.0000000000000000e+00  5.2314642410308227e+05 -3.4746790837837565e+04 0.0000000000000000e+00  7.0483949773963913e+05 -1.9572080151102029e+04 0.0000000000000000e+00  7.0633428432264214e+05 -4.2688437425049716e+02 0.0000000000000000e+00  5.4072880038268224e+05 -1.7508957555457912e+05 0.0000000000000000e+00  2.9275513717889559e+05 -2.5035928633234763e+05 0.0000000000000000e+00  4.0709715608808742e+05 -7.6308486972847895e+04 0.0000000000000000e+00  6.3200647022841044e+05 -4.2291105202151818e+05 0.0000000000000000e+00  4.0292230067127477e+05 -3.9216608240078436e+05 0.0000000000000000e+00  7.0128693575390277e+05 -2.0417956395242602e+05 0.0000000000000000e+00  7.0687396494433971e+05 -1.4210029206246548e+02 0.0000000000000000e+00  7.5551706807399169e+05 -4.5350363974302156e+04 0.0000000000000000e+00  7.0663270787437179e+05 -1.8262018046931269e+02 0.0000000000000000e+00  1.1507934632632202e+06 -3.7460194943590148e+05 0.0000000000000000e+00  1.1809147912612911e+06 -1.6279497172014692e+06 0.0000000000000000e+00  4.0614565008353052e+05 -3.8585747777290648e+05 0.0000000000000000e+00  4.8538494322844810e+05 -8.9584549844144072e+04 0.0000000000000000e+00  6.0242170278103056e+05 -1.2633701111638549e+05 0.0000000000000000e+00  7.2081022134795680e+05 -4.9477596846838620e+04 0.0000000000000000e+00  5.9160019445321232e+05 -3.8263441641154648e+04 0.0000000000000000e+00  7.1892851405613648e+05 -6.6847197738374798e+03 0.0000000000000000e+00  6.8247429143462761e+05 -9.3344332829259511e+03 0.0000000000000000e+00  6.8676676369509648e+