<?xml version="1.0"?>
<VTKFile type="UnstructuredGrid"  version="0.1"  >
<UnstructuredGrid>
<Piece  NumberOfPoints="1981" NumberOfCells="3668">
<Points>
<DataArray  type="Float64"  NumberOfComponents="3"  format="ascii">-2 0.5 0  -2 0 0  -0.5 0 0  -0.4968561049466213 -0.05598223805165387 0  -0.4874639560909119 -0.1112604669781569 0  -0.4719416651541838 -0.1651395309775835 0  -0.4504844339512096 -0.216941869558779 0  -0.4233620996141421 -0.2660160382576682 0  -0.3909157412340148 -0.3117449009293669 0  -0.3535533905932738 -0.3535533905932737 0  -0.3117449009293669 -0.3909157412340148 0  -0.2660160382576683 -0.4233620996141421 0  -0.2169418695587791 -0.4504844339512095 0  -0.1651395309775836 -0.4719416651541837 0  -0.1112604669781573 -0.4874639560909118 0  -0.05598223805165402 -0.4968561049466213 0  -9.184850993605148e-17 -0.5 0  2 -0.5 0  2 0 0  0.5 0 0  0.4968561049466213 0.05598223805165393 0  0.4874639560909118 0.1112604669781572 0  0.4719416651541838 0.1651395309775835 0  0.4504844339512096 0.2169418695587791 0  0.4233620996141421 0.2660160382576683 0  0.3909157412340149 0.3117449009293667 0  0.3535533905932738 0.3535533905932737 0  0.3117449009293668 0.3909157412340149 0  0.2660160382576683 0.4233620996141421 0  0.2169418695587791 0.4504844339512096 0  0.1651395309775837 0.4719416651541837 0  0.1112604669781572 0.4874639560909118 0  0.05598223805165384 0.4968561049466213 0  3.061616997868383e-17 0.5 0  0.1398708344106534 0.05418624992807294 0  0.15 0 0  0.1398708344106534 -0.05418624992807295 0  0.1108513375830988 -0.1010543465469837 0  0.06686075336648065 -0.1342744937032594 0  0.01384025391949536 -0.1493601264442552 0  -0.04104944851081246 -0.1442738464759228 0  -0.09039519545688858 -0.1197025840920358 0  -0.1275325703594421 -0.07896482443160337 0  -0.1474459649525853 -0.02756242767248552 0  -0.1474459649525853 0.02756242767248555 0  -0.1275325703594421 0.07896482443160341 0  -0.09039519545688844 0.1197025840920359 0  -0.04104944851081243 0.1442738464759228 0  0.0138402539194953 0.1493601264442552 0  0.06686075336648074 0.1342744937032593 0  0.1108513375830989 0.1010543465469836 0  -1 0.5 0  1 -0.5 0  -1.25 0 0  -0.5 0.5 0  1.25 0 0  0.4999999999999999 -0.5 0  -1.5 0.5 0  1.5 -0.5 0  -0.875 0 0  0.875 0 0  -1.625 0 0  1.625 0 0  0.6875 -0.2500000000000001 0  -0.6875 0.25 0  -2 0.25 0  1.75 -0.5 0  0.2499999999999999 -0.5 0  -0.3583969912126916 0.25 0  0.3749999999999999 -0.25 0  -1.0625 0.21875 0  1.0625 -0.21875 0  -1.75 0.5 0  -1.25 0.5 0  -1.375 0.25 0  1.4375 -0.21875 0  2 -0.25 0  1.25 -0.5 0  1.7375 -0.2375 0  -1.7375 0.2375 0  0.75 -0.5 0  -0.75 0.5 0  -0.25 0.5 0  -0.1570377317087672 0.3153742794659282 0  0.1249999999999999 -0.3338777090152827 0  -0.8826650943396226 0.3263561320754717 0  0.8826650943396227 -0.3263561320754717 0  1.25 -0.1897321428571428 0  1.4375 0 0  -1.4375 0 0  1.0625 0 0  -1.0625 0 0  -0.6875 0 0  0.6875 0 0  1.8125 0 0  -1.8125 0 0  0.3263011380546194 -0.06940056902730968 0  -1.554017857142857 0.1790178571428572 0  0.08847100915780901 0.3109433440851622 0  -0.2412983234264066 -0.2156373655531345 0  -1.625 0.3744047619047619 0  1.625 -0.3744047619047619 0  0.2743272717766799 0.1698562554772697 0  -0.3279338175957848 0.06764246763930631 0  -1.863068181818182 0.3630681818181818 0  2 -0.375 0  1.875 -0.5 0  -0.05442366733490933 -0.3203147637646457 0  1.321986607142857 -0.3448660714285714 0  1.125 -0.5 0  -1.209821428571429 0.3236607142857143 0  -0.5229484956063458 0.1781011282952406 0  0.9067445847815293 -0.1625224987586892 0  -0.8335714777578845 0.1642411083184135 0  -1.237063437253354 0.1627182813733228 0  -0.4947697009489606 0.3378596801347012 0  0.53125 -0.171875 0  0.5156249999999999 -0.3359375 0  -2 0.125 0  1.873225308641975 -0.1497685185185185 0  0.2341337966231563 -0.1911191776024666 0  -0.625 0.5 0  1.587453076345555 -0.2288757784711196 0  1.8125 -0.3654761904761905 0  -0.3326862624810256 -0.08869875963335262 0  -0.375 0.5 0  1.174048204529175 -0.319244854540162 0  -1.067618031042359 0.3674567846760797 0  -0.96875 0.109375 0  1.481463366596639 -0.3565498074229692 0  1.023503306098383 -0.3576535124663073 0  -0.2265388519390893 0.1866542405407749 0  0.625 -0.5 0  -1.852445652173913 0.1432065217391304 0  -1.375 0.5 0  -1.479101577239454 0.3541992113802732 0  0.2708871299591885 -0.3541935649795943 0  1.520204106978579 -0.109375 0  0.78125 -0.1026731411563172 0  -0.3125 0.3785994323952442 0  0.3749999999999999 -0.5 0  1.141568346088435 -0.109375 0  1.358431653911565 -0.109375 0  1.668712727161379 -0.1246887081867154 0  -1.673050595238095 0.1226339285714286 0  -1.34375 0 0  -1.431523109243698 0.1313182773109244 0  -0.7546231943577876 0.3660317014105531 0  -0.6233296454587935 0.3645528204344609 0  0.7546231943577878 -0.3660317014105531 0  0.6537002726710706 -0.125 0  -0.6441338591766993 0.125 0  1.375 -0.5 0  -2 0.375 0  -1.875 0.5 0  1.625 -0.5 0  -1.625 0.5 0  0.875 -0.5 0  -0.875 0.5 0  0.1249999999999999 -0.5 0  -0.125 0.5 0  2 -0.125 0  -1.125 0.5 0  -1.354082022940739 0.375 0  -0.03500388138134332 0.2732363193989585 0  0.3955099577726473 -0.3752808566622692 0  0.3596026196703111 0.0631070919012526 0  -0.0625 0.394061918116807 0  0.6342080192637126 -0.3582597885274255 0  -1.123666900137815 0.109375 0  -1.744588744588745 0.3803841991341991 0  0.2210084381421171 0.2925777566973838 0  0.8072251313743133 -0.2315819627814412 0  -0.1814335426834733 -0.3282792760620681 0  -0.9356634513979559 0.2218154628239019 0  0.4183753556420685 -0.1414382112841371 0  -0.1238894550978499 -0.2292394949250368 0  0.96875 0 0  1.013652292192466 -0.1102204462032291 0  -0.4393328341626322 0.09834605222123384 0  1.882206434331873 -0.2686982850037661 0  0.1426699461850768 0.2146575767791519 0  -1.886304127069339 0.251758104550396 0  0.2495743011762567 0.06264742837969955 0  -0.78125 0 0  0.04042933102838756 -0.2590839715717854 0  -1.53125 0 0  -0.5823692714154002 0.2663576540687616 0  -0.2594008044921133 0.2871583817002197 0  -0.9375 0.4157678007976423 0  0.9696186653311423 -0.2675997292662616 0  -0.7942971416386473 0.2646257048857303 0  0.06249999999999992 -0.4169388545076413 0  0.1874999999999999 -0.4169388545076413 0  -1.562839467699977 0.2864000626355251 0  -0.1875 0.4157529178973974 0  -0.1223698320396133 0.2179970721626365 0  1.770639498024741 -0.1399156735731578 0  0.9367002721196375 -0.4157324987180338 0  -1.90625 0 0  -0.2298618769854927 -0.08904896555277285 0  0.1397131066802196 -0.232031643549068 0  -0.4375 0.420861596936145 0  -0.3483554784186823 -0.1925292675214375 0  0.59375 0 0  -1.327632151430252 0.1057660692693074 0  -0.9830051201906395 0.3115204496273563 0  1.90625 0 0  1.236354269160391 -0.3993990952861421 0  -1.1875 0.4214935578661845 0  0.5625 -0.4247705455161483 0  -0.7349377422908023 0.1635199768201956 0  -1.583328550170068 0.08705835459183674 0  -1.640104497493491 0.2259991665335075 0  -1.467109316827997 0.2210671404637805 0  0.5896070530325394 -0.2690578560650788 0  0.3266472067106532 -0.167734762534917 0  -0.59375 0 0  -0.546875 0.08448914438556519 0  1.71875 0 0  1.156078290691277 -0.2031315651260504 0  1.337704613095238 -0.2433035714285714 0  1.236312294597949 -0.09486607142857142 0  0.1642123379155914 0.3701207892454864 0  0.2345507206108115 -0.04384512844718241 0  -0.4048861533022036 -0.02273791864794379 0  0.03798857341016919 0.3979165301900267 0  -0.4006523628802168 0.334179001454817 0  -0.1135990210174155 -0.393340785880617 0  1.906775738056482 -0.3598876272511091 0  1.720393990929705 -0.4044642857142857 0  -1.71875 0 0  1.15625 0 0  0.78125 0 0  1.53125 0 0  -0.96875 0 0  1.34375 0 0  -1.15625 0 0  1.142828909845958 -0.4078056758504979 0  0.40697192225457 -0.01923608979840619 0  -1.767708120728825 0.08966855818957545 0  -0.6882384924227143 0.4308047125515967 0  -0.3636785153797087 0.1553944795036722 0  -0.2291274285977749 0.08616080495998404 0  -0.281012338688557 -0.01202669255906096 0  0.3108677056378212 0.2586754570559801 0  -1.151751953043632 0.196872287087452 0  -0.5625 0.4330368698813529 0  0.6875 -0.4328910527173583 0  1.405021000845949 -0.3057191080886871 0  0.546875 -0.08025568181818182 0  0.3713523302229579 0.1599284134935842 0  -1.12196127795563 0.2911449911382941 0  -1.276991293863022 0.2522534749828799 0  1.255195006158927 -0.2798057638555942 0  -0.8388532729558951 0.4114132763440825 0  0.8388532729558953 -0.4114132763440825 0  -0.4557763550657601 0.2486174768248819 0  0.2049883534781638 -0.2934473685517857 0  0.3226059585583683 -0.4273378498573185 0  -1.426982449282418 0.4270508114904024 0  1.397702183984896 -0.4056170514003312 0  0.05467855045156804 0.2285245978493705 0  -0.272823163096586 -0.3046204408381326 0  -0.02656096412551515 -0.4126877256833236 0  -1.807235369718798 0.2933328120993839 0  0.1906985117418444 0.1399478964461678 0  -1.688085622354259 0.3115694793217502 0  1.659329587961023 -0.2879395206246994 0  -1.5625 0.437202380952381 0  1.546313524296827 -0.4210926184041992 0  -1.813279560389256 0.4363923695021056 0  -1.926524548924358 0.4265245489243581 0  -0.1751061200004134 -0.1578066000831913 0  0.2891187728554643 -0.268298186700636 0  0.4721679687499999 -0.2490234375 0  0.7276683718449491 -0.1720688736051095 0  0.4744973194747868 -0.4152356216385488 0  0.9322020604693165 -0.07914563824612769 0  -1.275602471792197 0.4154857864535745 0  -0.828125 0.07552171441918698 0  1.3125 -0.5 0  -1.931646474339171 0.178059096704675 0  -0.7167268019830385 0.08016211756451477 0  1.060414578698922 -0.4368616551407768 0  -1.6875 0.5 0  1.9375 -0.5 0  1.739833210773432 -0.3220974693894793 0  -2 0.3125 0  -1.207440692409131 0.07848980221212992 0  -0.04055821595704934 -0.2377097412335854 0  0.1922531441870086 -0.1190381071624572 0  1.509237778147088 -0.2717758217431455 0  0.8901922386429052 -0.2437760747352658 0  -1.498530569603453 0.07867879855510211 0  0.9849923856958628 -0.1870513965806273 0  1.515605916195201 -0.1906351698786736 0  1.439317880445072 -0.08458133750179306 0  1.932491348856277 -0.2050969650933771 0  1.828075655121533 -0.08087981225769847 0  1
[...]
<PointData  Vectors="f_39"> 
<DataArray  type="Float64"  Name="f_39"  NumberOfComponents="3" format="ascii">2.5461373054725836e+01 -1.4579474191368822e+01 0.0000000000000000e+00  6.9087828341218405e-01 -1.9526858841035626e+00 0.0000000000000000e+00  1.2067485424867291e+02 -6.5592939273478365e+01 0.0000000000000000e+00  1.1114512283189495e+02 -6.8439818301200532e+01 0.0000000000000000e+00  1.0686421126538804e+02 -6.6048357350855852e+01 0.0000000000000000e+00  1.0113157588251907e+02 -6.2008815724444986e+01 0.0000000000000000e+00  9.9544391597449362e+01 -5.7676574456538106e+01 0.0000000000000000e+00  1.0005714254217968e+02 -5.3726794168299413e+01 0.0000000000000000e+00  1.0004221655961598e+02 -5.0712228271223019e+01 0.0000000000000000e+00  1.0092111619560802e+02 -4.8651936504287448e+01 0.0000000000000000e+00  1.0325096281044652e+02 -4.3967168482005391e+01 0.0000000000000000e+00  1.0378399428822388e+02 -4.2589136174122885e+01 0.0000000000000000e+00  1.0506206489147002e+02 -4.0340722458354882e+01 0.0000000000000000e+00  1.0623346878375206e+02 -3.8262702767511122e+01 0.0000000000000000e+00  1.0717402192433674e+02 -3.6636242583986920e+01 0.0000000000000000e+00  1.0963524136215246e+02 -3.2873878961789956e+01 0.0000000000000000e+00  1.1214915881044293e+02 -3.2327120816533451e+01 0.0000000000000000e+00  1.4547472911548883e+02 1.8362438979528113e-02 0.0000000000000000e+00  1.5017097805711236e+02 -3.0823171510762565e-01 0.0000000000000000e+00  1.3782273570025882e+02 -6.7387918901719488e+01 0.0000000000000000e+00  1.2371527247978700e+02 -7.3797218730813853e+01 0.0000000000000000e+00  1.1527565199073238e+02 -6.9569169186891685e+01 0.0000000000000000e+00  1.1165949784167547e+02 -6.6119485530241619e+01 0.0000000000000000e+00  1.0824118604965628e+02 -6.1701870818458509e+01 0.0000000000000000e+00  1.0688708039161014e+02 -5.7412283228381042e+01 0.0000000000000000e+00  1.0806927202969503e+02 -5.3734481796234569e+01 0.0000000000000000e+00  1.0855644558888791e+02 -5.1646090453608586e+01 0.0000000000000000e+00  1.0930790459179907e+02 -4.9149459530656870e+01 0.0000000000000000e+00  1.0921158221057809e+02 -4.7701202351794386e+01 0.0000000000000000e+00  1.1160442163368344e+02 -4.4350700480076341e+01 0.0000000000000000e+00  1.1207917433329716e+02 -4.2641216194690607e+01 0.0000000000000000e+00  1.1407895206414798e+02 -4.0619154909622175e+01 0.0000000000000000e+00  1.1534185214635903e+02 -3.9645745270038390e+01 0.0000000000000000e+00  1.1887047693127215e+02 -3.8039355450136505e+01 0.0000000000000000e+00  1.1741692760088770e+02 -5.7377021424421471e+01 0.0000000000000000e+00  1.1470902865497943e+02 -5.3650062515607807e+01 0.0000000000000000e+00  1.1251465626004241e+02 -4.4821100186627227e+01 0.0000000000000000e+00  1.1443258070626790e+02 -3.8553542038351502e+01 0.0000000000000000e+00  1.1965875283901066e+02 -3.4340180751661499e+01 0.0000000000000000e+00  1.2456124693475923e+02 -3.6006260931926882e+01 0.0000000000000000e+00  1.2372835602044634e+02 -4.8543860331284883e+01 0.0000000000000000e+00  1.1936450492452089e+02 -5.5079642909994718e+01 0.0000000000000000e+00  1.1353973860915160e+02 -5.7823668221216586e+01 0.0000000000000000e+00  1.0752399734222429e+02 -5.6032462790676384e+01 0.0000000000000000e+00  1.0505166924025902e+02 -5.0990640211780971e+01 0.0000000000000000e+00  1.1075772836534317e+02 -4.2694905195047674e+01 0.0000000000000000e+00  1.1645778218853704e+02 -3.8816990743325135e+01 0.0000000000000000e+00  1.2322502141031238e+02 -3.8193550648409207e+01 0.0000000000000000e+00  1.2679186105614107e+02 -4.6297475166200634e+01 0.0000000000000000e+00  1.2575553748721015e+02 -4.9049725552473618e+01 0.0000000000000000e+00  1.2086689220390677e+02 -5.7445025048523526e+01 0.0000000000000000e+00  1.4785329028586182e+02 -8.1172724963980599e+01 0.0000000000000000e+00  1.4246901079111080e+02 -1.4189634751196346e+01 0.0000000000000000e+00  9.5856279868209100e+01 -9.7855879179886045e+01 0.0000000000000000e+00  1.3810335514274843e+02 -5.0746786595873495e+01 0.0000000000000000e+00  1.5107218393023297e+02 -9.7066645655468040e+00 0.0000000000000000e+00  1.3166452460724642e+02 -2.4447770709491046e+01 0.0000000000000000e+00  1.5572434814531408e+02 -1.5630525974852804e+02 0.0000000000000000e+00  1.4411292777936382e+02 -5.6054168506963054e+00 0.0000000000000000e+00  1.1379464702952778e+02 -6.7261404432613517e+01 0.0000000000000000e+00  1.5415969766136962e+02 -1.8245987768117040e+01 0.0000000000000000e+00  6.7953955859093725e+01 -1.4911526459841343e+02 0.0000000000000000e+00  1.5047155966255593e+02 -4.1564759838388872e+00 0.0000000000000000e+00  1.4469700002078366e+02 -2.6115321696346776e+01 0.0000000000000000e+00  1.2924601130988080e+02 -6.3157276248053861e+01 0.0000000000000000e+00  1.3969419809607698e+01 -6.3536989216235691e+00 0.0000000000000000e+00  1.4478038756486251e+02 -2.0978949887721443e+00 0.0000000000000000e+00  1.2228302332194981e+02 -2.7370071521791392e+01 0.0000000000000000e+00  1.2435238867308577e+02 -5.0914568337839235e+01 0.0000000000000000e+00  1.3022899927746161e+02 -3.6684249035206378e+01 0.0000000000000000e+00  1.2495914106577932e+02 -8.7955774086254621e+01 0.0000000000000000e+00  1.4809926272440609e+02 -1.3674278853429023e+01 0.0000000000000000e+00  1.6020643684632952e+02 -2.0302711450722089e+02 0.0000000000000000e+00  1.5461750060958613e+02 -1.0473248565106906e+02 0.0000000000000000e+00  1.2090643717019893e+02 -1.2254100406171673e+02 0.0000000000000000e+00  1.4816618678479003e+02 -6.9177276633007185e+00 0.0000000000000000e+00  1.4774440958767175e+02 -2.4174492653676422e-01 0.0000000000000000e+00  1.4357705642842163e+02 -9.4865288610855334e+00 0.0000000000000000e+00  1.4773914706035049e+02 -3.0253525148602516e+00 0.0000000000000000e+00  9.2492578426250006e+01 -1.9422409483767211e+02 0.0000000000000000e+00  1.3910078911365360e+02 -1.9051148152598977e+01 0.0000000000000000e+00  1.4170974003079894e+02 -6.5668010306021017e+01 0.0000000000000000e+00  1.2764921983003393e+02 -4.1382138569373964e+01 0.0000000000000000e+00  1.2247257522788421e+02 -4.3382681582119375e+01 0.0000000000000000e+00  1.1941788304945254e+02 -3.4553756736511204e+01 0.0000000000000000e+00  1.3443653010032403e+02 -7.4321189395717823e+01 0.0000000000000000e+00  1.4474457023606803e+02 -1.7801508630267545e+01 0.0000000000000000e+00  1.4830739711494019e+02 -1.0063306710187630e+01 0.0000000000000000e+00  1.5113466971304595e+02 -6.9086530275287412e+00 0.0000000000000000e+00  8.2849582650438293e+01 -1.2051458968990471e+02 0.0000000000000000e+00  1.5246385641711791e+02 -1.2444660767700682e+01 0.0000000000000000e+00  1.0622416759779398e+02 -7.9806274633452219e+01 0.0000000000000000e+00  1.2089055971342333e+02 -5.9333372322950723e+01 0.0000000000000000e+00  1.5790825311954569e+02 -2.6878607847116218e+01 0.0000000000000000e+00  1.5021955019646927e+02 -1.7046502543954070e+00 0.0000000000000000e+00  5.2354934526866181e+01 -1.6975717573436273e+02 0.0000000000000000e+00  1.2539325204625185e+02 -5.0049686282405659e+01 0.0000000000000000e+00  1.0036479919263385e+02 -1.4971539607456845e+02 0.0000000000000000e+00  1.1808914300370300e+02 -4.5813998516579240e+01 0.0000000000000000e+00  1.0864755339111314e+02 -5.1171471549641616e+01 0.0000000000000000e+00  1.3702718665965847e+02 -1.7919212278640757e+02 0.0000000000000000e+00  1.4598134055042027e+02 -4.3714033019654881e+00 0.0000000000000000e+00  1.1594939779737183e+02 -5.5731714787782913e+01 0.0000000000000000e+00  1.1606151903374273e+02 -5.4996866301147165e+01 0.0000000000000000e+00  1.0533268649013557e+02 -2.7386696367900100e+02 0.0000000000000000e+00  1.4643180385332690e+02 -2.8373252651951869e-01 0.0000000000000000e+00  1.4550174578811030e+02 -1.2038701655122193e+00 0.0000000000000000e+00  1.1473334037719718e+02 -4.0084738475847743e+01 0.0000000000000000e+00  1.4601881052433248e+02 -8.7024207132440345e+00 0.0000000000000000e+00  1.4308249378910998e+02 -1.1713053119803453e+01 0.0000000000000000e+00  1.3358428881825353e+02 -1.0338542762613160e+02 0.0000000000000000e+00  1.2593221578320198e+02 -5.7920178942674539e+01 0.0000000000000000e+00  1.4991743151814396e+02 -1.8062440509153568e+01 0.0000000000000000e+00  1.2358083782425977e+02 -6.9876029644464069e+01 0.0000000000000000e+00  1.1468934353746687e+02 -1.0535437137295617e+02 0.0000000000000000e+00  1.3120163340727595e+02 -5.3890793110400075e+01 0.0000000000000000e+00  1.4382269901855730e+02 -3.6736816559615200e+01 0.0000000000000000e+00  1.3514990361753212e+02 -2.9273417400349899e+01 0.0000000000000000e+00  7.6752379096344878e+00 -3.6497626753988555e+00 0.0000000000000000e+00  1.4886771719102407e+02 -1.4065933966614710e+00 0.0000000000000000e+00  1.2231145724629006e+02 -3.9332400839022092e+01 0.0000000000000000e+00  1.4059664466315132e+02 -5.8531147368547757e+01 0.0000000000000000e+00  1.4783037872411074e+02 -4.8732150821288149e+00 0.0000000000000000e+00  1.4632539854852178e+02 -1.9578379251571210e+00 0.0000000000000000e+00  1.0879311638089169e+02 -5.7767328706489380e+01 0.0000000000000000e+00  1.3288553034605070e+02 -4.5269453287143847e+01 0.0000000000000000e+00  1.4603598897593403e+02 -1.1342109997213353e+01 0.0000000000000000e+00  1.3704162051416566e+02 -8.8697572745782907e+01 0.0000000000000000e+00  1.1704722524408349e+02 -7.7766043776128726e+01 0.0000000000000000e+00  1.4602287469893594e+02 -6.3178443654065513e+00 0.0000000000000000e+00  1.4503204397792234e+02 -1.4070784587891525e+01 0.0000000000000000e+00  1.1811137554895809e+02 -4.6791365136540215e+01 0.0000000000000000e+00  1.3594623863674181e+02 -2.2041157817102338e+01 0.0000000000000000e+00  5.1316563866164728e+01 -1.9348503948825257e+02 0.0000000000000000e+00  1.5746833540089287e+02 -1.2416090944523928e+02 0.0000000000000000e+00  1.3863108642309007e+02 -1.4796262898243469e+02 0.0000000000000000e+00  1.2474226905304516e+02 -3.3111493789965337e+01 0.0000000000000000e+00  1.4942179175990432e+02 -5.6970974232070093e+00 0.0000000000000000e+00  1.5240501105711175e+02 -2.2360679467450311e+01 0.0000000000000000e+00  1.2691656316384064e+02 -4.6009205261732177e+01 0.0000000000000000e+00  1.2702159170574716e+02 -2.6637881587166699e+01 0.0000000000000000e+00  1.5017320839656179e+02 -1.1744628978622023e+01 0.0000000000000000e+00  1.4966583236689985e+02 -8.2330737188873364e+00 0.0000000000000000e+00  1.4906716345300225e+02 -3.8635912680153348e+00 0.0000000000000000e+00  8.0380536446404392e+01 -1.6858885369161138e+02 0.0000000000000000e+00  9.0062544889066686e+01 -1.1072638775833887e+02 0.0000000000000000e+00  9.9748356513282289e+01 -1.2917456286034496e+02 0.0000000000000000e+00  1.3570450943198085e+02 -6.6151825762158168e+01 0.0000000000000000e+00  1.3456355825071796e+02 -5.9448240309594730e+01 0.0000000000000000e+00  1.4152355417648803e+02 -2.1139784256438070e+01 0.0000000000000000e+00  1.5057916754323119e+02 -2.9594046153600193e+01 0.0000000000000000e+00  1.2492129072899424e+02 -6.0793515903421145e+01 0.0000000000000000e+00  1.4427727313456700e+02 -7.8388471541955305e+00 0.0000000000000000e+00  2.0356836062592468e+01 -9.6748092576655207e+00 0.0000000000000000e+00  1.3799734323013183e+02 -3.3441558241354488e+02 0.0000000000000000e+00  1.4433981962035469e+02 -4.0975939304085554e+00 0.0000000000000000e+00  1.6199645185360035e+02 -1.8317249811084818e+02 0.0000000000000000e+00  1.4094934970428571e+02 -1.6281830882329835e+01 0.0000000000000000e+00  1.4168708149867189e+02 -7.1869077251556504e+01 0.0000000000000000e+00  1.1706419606188894e+02 -2.8640115335940983e+01 0.0000000000000000e+00  1.2348698877568420e+02 -3.8877240931820204e+01 0.0000000000000000e+00  1.4904713591883686e+02 -2.8930150949256733e-01 0.0000000000000000e+00  1.4766180511604310e+02 -9.5179301232811511e+01 0.0000000000000000e+00  1.4210911805634564e+02 -1.2422342944317253e+02 0.0000000000000000e+00  1.2147870855889352e+02 -4.2876275097016652e+01 0.0000000000000000e+00  1.2961802730285729e+02 -3.0192935350471977e+01 0.0000000000000000e+00  1.2062889640448131e+02 -5.9769734630074304e+01 0.0000000000000000e+00  1.2100045813848483e+02 -4.0983753827859495e+01 0.0000000000000000e+00  1.3959554718726187e+02 -2.4864164516903131e+01 0.0000000000000000e+00  1.1143897082714160e+02 -8.9434319121993155e+01 0.0000000000000000e+00  1.3769505393161566e+02 -2.1882177580461072e+02 0.0000000000000000e+00  1.1443943142750190e+02 -4.9941696714746477e+01 0.0000000000000000e+00  1.4739745921391264e+02 -2.1079143906414632e+01 0.0000000000000000e+00  1.0864078244308224e+02 -4.4114742226554391e+01 0.0000000000000000e+00  1.2565590446490157e+02 -7.6410519939440817e+01 0.0000000000000000e+00  1.3504738469122645e+02 -4.4742727259291762e+01 0.0000000000000000e+00  1.1447695805008351e+02 -4.7189725964528144e+01 0.0000000000000000e+00  1.5381838130450757e+02 -1.5436889227034809e+01 0.0000000000000000e+00  1.5099613492718905e+02 -1.4575554794906921e+01 0.0000000000000000e+00  1.2135981382741186e+02 -5.8292833511999099e+01 0.0000000000000000e+00  1.4750374927465046e+02 -1.3722788558432402e+00 0.0000000000000000e+00  1.1968776872332931e+02 -5.0813089547699491e+01 0.0000000000000000e+00  5.6219854062263202e+01 -2.3125202410768119e+02 0.0000000000000000e+00  1.1818419645151474e+02 -5.5483898565287305e+01 0.0000000000000000e+00  1.1775152869234086e+02 -6.2462708199273621e+01 0.0000000000000000e+00  1.1932258517603194e+02 -3.7528489887381625e+01 0.0000000000000000e+00  7.6143794164937347e+01 -1.3837853061859130e+02 0.0000000000000000e+00  1.2954352172549815e+02 -5.8129206846568657e+01 0.0000000000000000e+00  1.2327975303609945e+02 -4.6747755989120385e+01 0.0000000000000000e+00  1.4071847752849911e+02 -7.7240874408658001e+01 0.0000000000000000e+00  1.4685244884253098e+02 -1.6056889545521823e+01 0.0000000000000000e+00  1.2932789964890236e+02 -6.8396448817485307e+01 0.0000000000000000e+00  1.1553125306791601e+02 -3.3261067428759446e+01 0.0000000000000000e+00  1.2081279999481734e+02 -3.0512689634481692e+01 0.0000000000000000e+00  1.2070852112079277e+02 -1.6082621147682090e+02 0.0000000000000000e+00  1.2486681151465901e+02 -4.1466296421015983e+01 0.0000000000000000e+00  1.1973784449370605e+02 -4.2315523670485263e+01 0.0000000000000000e+00  1.4909896675711880e+02 -2.5917171546838840e+00 0.0000000000000000e+00  1.4282240205574320e+02 -1.5541480477767877e+01 0.0000000000000000e+00  4.1562700083119630e+01 -1.6731395144715455e+02 0.0000000000000000e+00  1.1026273002180373e+02 -5.5971936332147578e+01 0.0000000000000000e+00  1.1989252460112340e+02 -3.6500293850753948e+01 0.0000000000000000e+00  1.3368541676393053e+02 -4.9392906481171444e+01 0.0000000000000000e+00  1.0495815271155881e+02 -5.5487178742020802e+01 0.0000000000000000e+00  1.6139042618046838e+02 -3.5172372580025424e+01 0.0000000000000000e+00  1.0182490254997730e+02 -1.1316861098484864e+02 0.0000000000000000e+00  1.3241532892151494e+02 -8.0875598715414768e+01 0.0000000000000000e+00  1.5006230664527246e+02 -8.0772828778309103e-01 0.0000000000000000e+00  1.4493180754194526e+02 -1.0237161611586741e+01 0.0000000000000000e+00  1.4420640691564199e+02 -1.0068864240725986e+02 0.0000000000000000e+00  1.3477205410797060e+02 -2.4952918350305186e+01 0.0000000000000000e+00  1.2556792597588893e+02 -6.4395018561324363e+01 0.0000000000000000e+00  8.1967120988892660e+01 -1.5015126804569141e+02 0.0000000000000000e+00  9.8803788604526375e+01 -1.7328956196349807e+02 0.0000000000000000e+00  1.1119937912148167e+02 -1.4060471904286533e+02 0.0000000000000000e+00  1.4103521670528249e+02 -2.9575271866729228e+01 0.0000000000000000e+00  1.2783831829748829e+02 -4.2705947904235643e+01 0.0000000000000000e+00  1.2529521644417528e+02 -5.7729615217604469e+01 0.0000000000000000e+00  1.2563045970612639e+02 -5.9782325951563877e+01 0.0000000000000000e+00  1.5037261137710385e+02 -3.1747903840427196e+00 0.0000000000000000e+00  1.4829439724485201e+02 -1.1836479485324732e+01 0.0000000000000000e+00  1.4751033978848821e+02 -8.6254425215817836e+00 0.0000000000000000e+00  1.5002707628255050e+02 -1.0078801655853303e+01 0.0000000000000000e+00  1.1446283596656934e+02 -4.5974128797709042e+01 0.0000000000000000e+00  1.1837107562062012e+02 -4.8133442163487210e+01 0.0000000000000000e+00  1.1324709552923122e+02 -6.2755788527386038e+01 0.0000000000000000e+00  1.1818500151727136e+02 -4.1605665423920243e+01 0.0000000000000000e+00  1.2851507642840343e+02 -4.9336505497237283e+01 0.0000000000000000e+00  1.0960947934844610e+02 -3.9081381157598507e+01 0.0000000000000000e+00  1.4657552400179438e+02 -9.2182016403734868e-01 0.0000000000000000e+00  1.4570810846740241e+02 -2.7518709759070341e+00 0.0000000000000000e+00  6.0272988823304736e+01 -1.6486926561234068e+02 0.0000000000000000e+00  1.5177053564786124e+02 -1.0661483539802637e+01 0.0000000000000000e+00  1.5625720883684829e+02 -2.1539620487789019e+01 0.0000000000000000e+00  1.5067202639798538e+02 -5.3512882709647513e+00 0.0000000000000000e+00  1.1006934197805805e+02 -7.4368574584073855e+01 0.0000000000000000e+00  1.5096252148926084e+02 -8.3267952977021604e+00 0.0000000000000000e+00  9.9823213181225597e+01 -8.7305583270747391e+01 0.0000000000000000e+00  1.4455733313469401e+02 -1.1496413896014126e+01 0.0000000000000000e+00  1.3269632380801926e+02 -5.8311422411902392e+01 0.0000000000000000e+00  6.4163432478330805e+01 -1.7607392477581251e+02 0.0000000000000000e+00  1.3872693285581991e+02 -6.2367501821623677e+01 0.0000000000000000e+00  1.2071338840764619e+02 -5.3358073927612736e+01 0.0000000000000000e+00  1.1303086818394671e+02 -4.9386040529428165e+01 0.0000000000000000e+00  1.1113696046259399e+02 -5.5984520621750647e+01 0.0000000000000000e+00  1.1125076813601062e+02 -5.3993319600009841e+01 0.0000000000000000e+00  1.1992653363534700e+02 -9.6408113524702713e+01 0.0000000000000000e+00  1.3666685185054519e+02 -5.5652277053321036e+01 0.0000000000000000e+00  1.3896370237304717e+02 -2.1340656597067916e+01 0.0000000000000000e+00  1.4655677733277844e+02 -7.7527674588590516e+00 0.0000000000000000e+00  1.5097627740513204e+02 -4.3815921519032536e+01 0.0000000000000000e+00  1.1479176174068181e+02 -5.9962563993845208e+01 0.0000000000000000e+00  1.3016379628711505e+02 -9.3911322929917290e+01 0.0000000000000000e+00  1.2373204852779340e+02 -1.1284918306280716e+02 0.0000000000000000e+00  1.4693821813820284e+02 -9.9750901978069759e+00 0.0000000000000000e+00  1.3865928373823058e+02 -6.9647512010910859e+01 0.0000000000000000e+00  1.4201284732689851e+02 -1.7987566886057962e+01 0.0000000000000000e+00  1.2613097618224856e+02 -5.4210504671291289e+01 0.0000000000000000e+00  1.2273909378128185e+02 -3.5076332964086880e+01 0.0000000000000000e+00  1.2580942328629442e+02 -2.9711252360425242e+01 0.0000000000000000e+00  1.5221991747491558e+02 -1.3755752925607740e+02 0.0000000000000000e+00  1.4511069314867530e+02 -7.5737963159935333e+00 0.0000000000000000e+00  1.2235147015422723e+02 -4.6862705312649638e+01 0.0000000000000000e+00  1.0473760592493265e+02 -4.7834538448072770e+01 0.0000000000000000e+00  1.1295601116131614e+02 -3.5881749061061342e+01 0.0000000000000000e+00  9.5604935374870536e+01 -2.2415579163642315e+02 0.0000000000000000e+00  1.1896929969131470e+02 -5.4864857873294042e+01 0.0000000000000000e+00  1.1633971984669138e+02 -1.9166473714135401e+02 0.0000000000000000e+00  1.4696379372835153e+02 -3.8464660783745450e+00 0.0000000000000000e+00  1.5227493238004072e+02 -1.6391362554120963e+02 0.0000000000000000e+00  1.4527557846943978e+02 -5.4291350310749120e+00 0.0000000000000000e+00  1.6544026672566059e+02 -2.5795525738425772e+02 0.0000000000000000e+00  1.0800961944927725e+02 -3.2992135970808482e+02 0.0000000000000000e+00  1.1312647952052295e+02 -5.3789150887988413e+01 0.0000000000000000e+00  1.2505432232855152e+02 -3.5919377253399361e+01 0.0000000000000000e+00  1.3568810714717185e+02 -3.4982617907277842e+01 0.0000000000000000e+00  1.4881127243673922e+02 -2.5554762910060965e+01 0.0000000000000000e+00  1.3216230561480816e+02 -2.7243028047750364e+01 0.0000000000000000e+00  1.5253426153464758e+02 -1.6976374676815645e+01 0.0000000000000000e+00  1.4618295525140479e+02 -1.1209299861264273e+02 0.0000000000000000e+00  1.18776965868