<?xml version="1.0"?>
<VTKFile type="UnstructuredGrid"  version="0.1"  >
<UnstructuredGrid>
<Piece  NumberOfPoints="1981" NumberOfCells="3668">
<Points>
<DataArray  type="Float64"  NumberOfComponents="3"  format="ascii">-2 0.5 0  -2 0 0  -0.5 0 0  -0.4968561049466213 -0.05598223805165387 0  -0.4874639560909119 -0.1112604669781569 0  -0.4719416651541838 -0.1651395309775835 0  -0.4504844339512096 -0.216941869558779 0  -0.4233620996141421 -0.2660160382576682 0  -0.3909157412340148 -0.3117449009293669 0  -0.3535533905932738 -0.3535533905932737 0  -0.3117449009293669 -0.3909157412340148 0  -0.2660160382576683 -0.4233620996141421 0  -0.2169418695587791 -0.4504844339512095 0  -0.1651395309775836 -0.4719416651541837 0  -0.1112604669781573 -0.4874639560909118 0  -0.05598223805165402 -0.4968561049466213 0  -9.184850993605148e-17 -0.5 0  2 -0.5 0  2 0 0  0.5 0 0  0.4968561049466213 0.05598223805165393 0  0.4874639560909118 0.1112604669781572 0  0.4719416651541838 0.1651395309775835 0  0.4504844339512096 0.2169418695587791 0  0.4233620996141421 0.2660160382576683 0  0.3909157412340149 0.3117449009293667 0  0.3535533905932738 0.3535533905932737 0  0.3117449009293668 0.3909157412340149 0  0.2660160382576683 0.4233620996141421 0  0.2169418695587791 0.4504844339512096 0  0.1651395309775837 0.4719416651541837 0  0.1112604669781572 0.4874639560909118 0  0.05598223805165384 0.4968561049466213 0  3.061616997868383e-17 0.5 0  0.1398708344106534 0.05418624992807294 0  0.15 0 0  0.1398708344106534 -0.05418624992807295 0  0.1108513375830988 -0.1010543465469837 0  0.06686075336648065 -0.1342744937032594 0  0.01384025391949536 -0.1493601264442552 0  -0.04104944851081246 -0.1442738464759228 0  -0.09039519545688858 -0.1197025840920358 0  -0.1275325703594421 -0.07896482443160337 0  -0.1474459649525853 -0.02756242767248552 0  -0.1474459649525853 0.02756242767248555 0  -0.1275325703594421 0.07896482443160341 0  -0.09039519545688844 0.1197025840920359 0  -0.04104944851081243 0.1442738464759228 0  0.0138402539194953 0.1493601264442552 0  0.06686075336648074 0.1342744937032593 0  0.1108513375830989 0.1010543465469836 0  -1 0.5 0  1 -0.5 0  -1.25 0 0  -0.5 0.5 0  1.25 0 0  0.4999999999999999 -0.5 0  -1.5 0.5 0  1.5 -0.5 0  -0.875 0 0  0.875 0 0  -1.625 0 0  1.625 0 0  0.6875 -0.2500000000000001 0  -0.6875 0.25 0  -2 0.25 0  1.75 -0.5 0  0.2499999999999999 -0.5 0  -0.3583969912126916 0.25 0  0.3749999999999999 -0.25 0  -1.0625 0.21875 0  1.0625 -0.21875 0  -1.75 0.5 0  -1.25 0.5 0  -1.375 0.25 0  1.4375 -0.21875 0  2 -0.25 0  1.25 -0.5 0  1.7375 -0.2375 0  -1.7375 0.2375 0  0.75 -0.5 0  -0.75 0.5 0  -0.25 0.5 0  -0.1570377317087672 0.3153742794659282 0  0.1249999999999999 -0.3338777090152827 0  -0.8826650943396226 0.3263561320754717 0  0.8826650943396227 -0.3263561320754717 0  1.25 -0.1897321428571428 0  1.4375 0 0  -1.4375 0 0  1.0625 0 0  -1.0625 0 0  -0.6875 0 0  0.6875 0 0  1.8125 0 0  -1.8125 0 0  0.3263011380546194 -0.06940056902730968 0  -1.554017857142857 0.1790178571428572 0  0.08847100915780901 0.3109433440851622 0  -0.2412983234264066 -0.2156373655531345 0  -1.625 0.3744047619047619 0  1.625 -0.3744047619047619 0  0.2743272717766799 0.1698562554772697 0  -0.3279338175957848 0.06764246763930631 0  -1.863068181818182 0.3630681818181818 0  2 -0.375 0  1.875 -0.5 0  -0.05442366733490933 -0.3203147637646457 0  1.321986607142857 -0.3448660714285714 0  1.125 -0.5 0  -1.209821428571429 0.3236607142857143 0  -0.5229484956063458 0.1781011282952406 0  0.9067445847815293 -0.1625224987586892 0  -0.8335714777578845 0.1642411083184135 0  -1.237063437253354 0.1627182813733228 0  -0.4947697009489606 0.3378596801347012 0  0.53125 -0.171875 0  0.5156249999999999 -0.3359375 0  -2 0.125 0  1.873225308641975 -0.1497685185185185 0  0.2341337966231563 -0.1911191776024666 0  -0.625 0.5 0  1.587453076345555 -0.2288757784711196 0  1.8125 -0.3654761904761905 0  -0.3326862624810256 -0.08869875963335262 0  -0.375 0.5 0  1.174048204529175 -0.319244854540162 0  -1.067618031042359 0.3674567846760797 0  -0.96875 0.109375 0  1.481463366596639 -0.3565498074229692 0  1.023503306098383 -0.3576535124663073 0  -0.2265388519390893 0.1866542405407749 0  0.625 -0.5 0  -1.852445652173913 0.1432065217391304 0  -1.375 0.5 0  -1.479101577239454 0.3541992113802732 0  0.2708871299591885 -0.3541935649795943 0  1.520204106978579 -0.109375 0  0.78125 -0.1026731411563172 0  -0.3125 0.3785994323952442 0  0.3749999999999999 -0.5 0  1.141568346088435 -0.109375 0  1.358431653911565 -0.109375 0  1.668712727161379 -0.1246887081867154 0  -1.673050595238095 0.1226339285714286 0  -1.34375 0 0  -1.431523109243698 0.1313182773109244 0  -0.7546231943577876 0.3660317014105531 0  -0.6233296454587935 0.3645528204344609 0  0.7546231943577878 -0.3660317014105531 0  0.6537002726710706 -0.125 0  -0.6441338591766993 0.125 0  1.375 -0.5 0  -2 0.375 0  -1.875 0.5 0  1.625 -0.5 0  -1.625 0.5 0  0.875 -0.5 0  -0.875 0.5 0  0.1249999999999999 -0.5 0  -0.125 0.5 0  2 -0.125 0  -1.125 0.5 0  -1.354082022940739 0.375 0  -0.03500388138134332 0.2732363193989585 0  0.3955099577726473 -0.3752808566622692 0  0.3596026196703111 0.0631070919012526 0  -0.0625 0.394061918116807 0  0.6342080192637126 -0.3582597885274255 0  -1.123666900137815 0.109375 0  -1.744588744588745 0.3803841991341991 0  0.2210084381421171 0.2925777566973838 0  0.8072251313743133 -0.2315819627814412 0  -0.1814335426834733 -0.3282792760620681 0  -0.9356634513979559 0.2218154628239019 0  0.4183753556420685 -0.1414382112841371 0  -0.1238894550978499 -0.2292394949250368 0  0.96875 0 0  1.013652292192466 -0.1102204462032291 0  -0.4393328341626322 0.09834605222123384 0  1.882206434331873 -0.2686982850037661 0  0.1426699461850768 0.2146575767791519 0  -1.886304127069339 0.251758104550396 0  0.2495743011762567 0.06264742837969955 0  -0.78125 0 0  0.04042933102838756 -0.2590839715717854 0  -1.53125 0 0  -0.5823692714154002 0.2663576540687616 0  -0.2594008044921133 0.2871583817002197 0  -0.9375 0.4157678007976423 0  0.9696186653311423 -0.2675997292662616 0  -0.7942971416386473 0.2646257048857303 0  0.06249999999999992 -0.4169388545076413 0  0.1874999999999999 -0.4169388545076413 0  -1.562839467699977 0.2864000626355251 0  -0.1875 0.4157529178973974 0  -0.1223698320396133 0.2179970721626365 0  1.770639498024741 -0.1399156735731578 0  0.9367002721196375 -0.4157324987180338 0  -1.90625 0 0  -0.2298618769854927 -0.08904896555277285 0  0.1397131066802196 -0.232031643549068 0  -0.4375 0.420861596936145 0  -0.3483554784186823 -0.1925292675214375 0  0.59375 0 0  -1.327632151430252 0.1057660692693074 0  -0.9830051201906395 0.3115204496273563 0  1.90625 0 0  1.236354269160391 -0.3993990952861421 0  -1.1875 0.4214935578661845 0  0.5625 -0.4247705455161483 0  -0.7349377422908023 0.1635199768201956 0  -1.583328550170068 0.08705835459183674 0  -1.640104497493491 0.2259991665335075 0  -1.467109316827997 0.2210671404637805 0  0.5896070530325394 -0.2690578560650788 0  0.3266472067106532 -0.167734762534917 0  -0.59375 0 0  -0.546875 0.08448914438556519 0  1.71875 0 0  1.156078290691277 -0.2031315651260504 0  1.337704613095238 -0.2433035714285714 0  1.236312294597949 -0.09486607142857142 0  0.1642123379155914 0.3701207892454864 0  0.2345507206108115 -0.04384512844718241 0  -0.4048861533022036 -0.02273791864794379 0  0.03798857341016919 0.3979165301900267 0  -0.4006523628802168 0.334179001454817 0  -0.1135990210174155 -0.393340785880617 0  1.906775738056482 -0.3598876272511091 0  1.720393990929705 -0.4044642857142857 0  -1.71875 0 0  1.15625 0 0  0.78125 0 0  1.53125 0 0  -0.96875 0 0  1.34375 0 0  -1.15625 0 0  1.142828909845958 -0.4078056758504979 0  0.40697192225457 -0.01923608979840619 0  -1.767708120728825 0.08966855818957545 0  -0.6882384924227143 0.4308047125515967 0  -0.3636785153797087 0.1553944795036722 0  -0.2291274285977749 0.08616080495998404 0  -0.281012338688557 -0.01202669255906096 0  0.3108677056378212 0.2586754570559801 0  -1.151751953043632 0.196872287087452 0  -0.5625 0.4330368698813529 0  0.6875 -0.4328910527173583 0  1.405021000845949 -0.3057191080886871 0  0.546875 -0.08025568181818182 0  0.3713523302229579 0.1599284134935842 0  -1.12196127795563 0.2911449911382941 0  -1.276991293863022 0.2522534749828799 0  1.255195006158927 -0.2798057638555942 0  -0.8388532729558951 0.4114132763440825 0  0.8388532729558953 -0.4114132763440825 0  -0.4557763550657601 0.2486174768248819 0  0.2049883534781638 -0.2934473685517857 0  0.3226059585583683 -0.4273378498573185 0  -1.426982449282418 0.4270508114904024 0  1.397702183984896 -0.4056170514003312 0  0.05467855045156804 0.2285245978493705 0  -0.272823163096586 -0.3046204408381326 0  -0.02656096412551515 -0.4126877256833236 0  -1.807235369718798 0.2933328120993839 0  0.1906985117418444 0.1399478964461678 0  -1.688085622354259 0.3115694793217502 0  1.659329587961023 -0.2879395206246994 0  -1.5625 0.437202380952381 0  1.546313524296827 -0.4210926184041992 0  -1.813279560389256 0.4363923695021056 0  -1.926524548924358 0.4265245489243581 0  -0.1751061200004134 -0.1578066000831913 0  0.2891187728554643 -0.268298186700636 0  0.4721679687499999 -0.2490234375 0  0.7276683718449491 -0.1720688736051095 0  0.4744973194747868 -0.4152356216385488 0  0.9322020604693165 -0.07914563824612769 0  -1.275602471792197 0.4154857864535745 0  -0.828125 0.07552171441918698 0  1.3125 -0.5 0  -1.931646474339171 0.178059096704675 0  -0.7167268019830385 0.08016211756451477 0  1.060414578698922 -0.4368616551407768 0  -1.6875 0.5 0  1.9375 -0.5 0  1.739833210773432 -0.3220974693894793 0  -2 0.3125 0  -1.207440692409131 0.07848980221212992 0  -0.04055821595704934 -0.2377097412335854 0  0.1922531441870086 -0.1190381071624572 0  1.509237778147088 -0.2717758217431455 0  0.8901922386429052 -0.2437760747352658 0  -1.498530569603453 0.07867879855510211 0  0.9849923856958628 -0.1870513965806273 0  1.515605916195201 -0.1906351698786736 0  1.439317880445072 -0.08458133750179306 0  1.932491348856277 -0.2050969650933771 0  1.828075655121533 -0.08087981225769847 0  1
[...]
<PointData  Vectors="f_39"> 
<DataArray  type="Float64"  Name="f_39"  NumberOfComponents="3" format="ascii">2.4702057228675134e+01 -7.5124969601689422e+00 0.0000000000000000e+00  3.6134174984741346e-01 -1.0419221845426505e+00 0.0000000000000000e+00  8.3281314693638649e+01 -4.3294798965761842e+01 0.0000000000000000e+00  7.9723425137850754e+01 -4.3185811503461430e+01 0.0000000000000000e+00  7.8014464336764419e+01 -4.1840039312568848e+01 0.0000000000000000e+00  7.5759503658218208e+01 -3.9452773627089663e+01 0.0000000000000000e+00  7.5164422738140729e+01 -3.7173871130494376e+01 0.0000000000000000e+00  7.5766280450303654e+01 -3.5074037902513439e+01 0.0000000000000000e+00  7.5880379587309420e+01 -3.3502855204494516e+01 0.0000000000000000e+00  7.6482727607799660e+01 -3.2410344516047559e+01 0.0000000000000000e+00  7.7972367770435852e+01 -3.0039508015975965e+01 0.0000000000000000e+00  7.8332788893962061e+01 -2.9369122308340209e+01 0.0000000000000000e+00  7.9056250362711168e+01 -2.8228429533284938e+01 0.0000000000000000e+00  7.9713203317020529e+01 -2.7195734154386063e+01 0.0000000000000000e+00  8.0198351375942124e+01 -2.6361507831658635e+01 0.0000000000000000e+00  8.1476154170668025e+01 -2.4442872634808040e+01 0.0000000000000000e+00  8.2713848243964392e+01 -2.4085951862663023e+01 0.0000000000000000e+00  1.0045190265967214e+02 -1.7836896155076325e-02 0.0000000000000000e+00  1.0462815227721850e+02 -2.7315092558805565e-01 0.0000000000000000e+00  9.7846124117236741e+01 -4.2451333670010108e+01 0.0000000000000000e+00  9.0341408867092625e+01 -4.6236510503308885e+01 0.0000000000000000e+00  8.5815340077543993e+01 -4.4049668545908155e+01 0.0000000000000000e+00  8.3857073614669090e+01 -4.2242599404864386e+01 0.0000000000000000e+00  8.2182105627365132e+01 -3.9997114648471076e+01 0.0000000000000000e+00  8.1491540924946122e+01 -3.7771084802592092e+01 0.0000000000000000e+00  8.2128464074092406e+01 -3.5877283218550481e+01 0.0000000000000000e+00  8.2419208777562204e+01 -3.4818554516351938e+01 0.0000000000000000e+00  8.2860125949271747e+01 -3.3574970708795917e+01 0.0000000000000000e+00  8.2884894448639898e+01 -3.2827201538972012e+01 0.0000000000000000e+00  8.4200738457155893e+01 -3.1252820230334727e+01 0.0000000000000000e+00  8.4491416341420191e+01 -3.0448540009378849e+01 0.0000000000000000e+00  8.5590654310509393e+01 -2.9498440779450192e+01 0.0000000000000000e+00  8.6256518493492791e+01 -2.9044224883207995e+01 0.0000000000000000e+00  8.8195508547900744e+01 -2.8356762802462001e+01 0.0000000000000000e+00  8.6415968153161757e+01 -3.8051161940051870e+01 0.0000000000000000e+00  8.4639875339600323e+01 -3.6014868827491320e+01 0.0000000000000000e+00  8.3191849047526816e+01 -3.1049291869774517e+01 0.0000000000000000e+00  8.4073758419777661e+01 -2.7505185155984424e+01 0.0000000000000000e+00  8.6823490236563572e+01 -2.5056399807983741e+01 0.0000000000000000e+00  8.9508165767656422e+01 -2.5997975504005794e+01 0.0000000000000000e+00  8.9221645576361709e+01 -3.2839996504522254e+01 0.0000000000000000e+00  8.6765818134217227e+01 -3.6577578754954772e+01 0.0000000000000000e+00  8.3573216940055744e+01 -3.8308979916139435e+01 0.0000000000000000e+00  8.0252249571790884e+01 -3.7723040282708894e+01 0.0000000000000000e+00  7.9044612610600282e+01 -3.5233056113465807e+01 0.0000000000000000e+00  8.2289833532824005e+01 -3.1080951933326165e+01 0.0000000000000000e+00  8.5590451450176815e+01 -2.8956654194277515e+01 0.0000000000000000e+00  8.9369741486611844e+01 -2.8538664068068240e+01 0.0000000000000000e+00  9.1385149377148636e+01 -3.2480095958050818e+01 0.0000000000000000e+00  9.0968081764142255e+01 -3.3852361199008449e+01 0.0000000000000000e+00  8.8329656040746883e+01 -3.8130188621296043e+01 0.0000000000000000e+00  1.0576018629784033e+02 -6.7028656857303304e+01 0.0000000000000000e+00  9.8713075805366685e+01 -1.1959676343914319e+01 0.0000000000000000e+00  6.2473801570668272e+01 -8.2399932826187495e+01 0.0000000000000000e+00  9.9763024489618061e+01 -3.9515821372471457e+01 0.0000000000000000e+00  1.0512435783528660e+02 -8.4715998682477132e+00 0.0000000000000000e+00  9.3075504895793500e+01 -1.8912683948253203e+01 0.0000000000000000e+00  1.0960839207039896e+02 -1.2684016611913232e+02 0.0000000000000000e+00  9.9420115711187691e+01 -5.0223169583783980e+00 0.0000000000000000e+00  7.5335049920713516e+01 -5.4958046127247933e+01 0.0000000000000000e+00  1.0656778576047105e+02 -1.4572267096276249e+01 0.0000000000000000e+00  4.4559539976628770e+01 -1.2476489372405292e+02 0.0000000000000000e+00  1.0483433787186770e+02 -3.7190546587589823e+00 0.0000000000000000e+00  1.0076421370783513e+02 -1.9375424767526479e+01 0.0000000000000000e+00  9.0177175939306181e+01 -4.9803429158692239e+01 0.0000000000000000e+00  1.3719822047146023e+01 -3.2122382812385588e+00 0.0000000000000000e+00  9.9925156119671257e+01 -1.9302379099764257e+00 0.0000000000000000e+00  8.8097313620072313e+01 -2.1083125974051715e+01 0.0000000000000000e+00  8.9418111280678062e+01 -3.7556352551786567e+01 0.0000000000000000e+00  9.2816131684443206e+01 -2.5920056020804189e+01 0.0000000000000000e+00  8.6090022502111921e+01 -7.2721519079767319e+01 0.0000000000000000e+00  1.0268642608306682e+02 -1.1337264372519874e+01 0.0000000000000000e+00  1.0962149824571071e+02 -1.6191724520630146e+02 0.0000000000000000e+00  1.1010318501783870e+02 -8.7472368313418357e+01 0.0000000000000000e+00  8.3409890825935449e+01 -1.0138892532365701e+02 0.0000000000000000e+00  1.0283123018034482e+02 -6.0410030386237992e+00 0.0000000000000000e+00  1.0246306561619616e+02 -2.3018870268368138e-01 0.0000000000000000e+00  9.9158114697781485e+01 -8.2796942668508091e+00 0.0000000000000000e+00  1.0247691963141534e+02 -2.6914374431725570e+00 0.0000000000000000e+00  6.4479956175398740e+01 -1.5490974550838996e+02 0.0000000000000000e+00  9.7067217540526002e+01 -1.5452569589793693e+01 0.0000000000000000e+00  1.0157556110430784e+02 -5.3069359902254419e+01 0.0000000000000000e+00  9.3296091727090825e+01 -3.1648308751499545e+01 0.0000000000000000e+00  8.9500057626114838e+01 -3.2140934728168261e+01 0.0000000000000000e+00  8.6715692969857514e+01 -2.5112325928058620e+01 0.0000000000000000e+00  9.4630039169731376e+01 -6.0684288184108311e+01 0.0000000000000000e+00  1.0050240002094226e+02 -1.4234823055956696e+01 0.0000000000000000e+00  1.0290555290150172e+02 -8.6151888635856881e+00 0.0000000000000000e+00  1.0531301863185692e+02 -6.0724058601547695e+00 0.0000000000000000e+00  5.3561948134769466e+01 -1.0149311311061953e+02 0.0000000000000000e+00  1.0583402630465928e+02 -1.0692726647229620e+01 0.0000000000000000e+00  6.9835955640266249e+01 -6.6716340101501686e+01 0.0000000000000000e+00  8.0182777849213025e+01 -4.6471077187069859e+01 0.0000000000000000e+00  1.0855114549957197e+02 -1.9799900218948245e+01 0.0000000000000000e+00  1.0469674273569981e+02 -1.5291644035199266e+00 0.0000000000000000e+00  3.6565063721528482e+01 -1.4047679000954045e+02 0.0000000000000000e+00  9.0583384731214025e+01 -3.3496294419880471e+01 0.0000000000000000e+00  6.8335660815470519e+01 -1.2271569810164088e+02 0.0000000000000000e+00  8.7304297751398920e+01 -3.2250506681306405e+01 0.0000000000000000e+00  8.0592409623660799e+01 -3.4218350925083541e+01 0.0000000000000000e+00  9.5417636707634358e+01 -1.4381019899089972e+02 0.0000000000000000e+00  1.0096196391228732e+02 -3.8841462235411424e+00 0.0000000000000000e+00  8.6003712215360110e+01 -3.7001890740766768e+01 0.0000000000000000e+00  8.3870435450824317e+01 -3.8070272659964807e+01 0.0000000000000000e+00  7.4372721161362790e+01 -2.0838496184450787e+02 0.0000000000000000e+00  1.0127799807968391e+02 -2.5954373778583528e-01 0.0000000000000000e+00  1.0044673475770945e+02 -1.0799680088690997e+00 0.0000000000000000e+00  8.4185114691354855e+01 -2.8220537372513004e+01 0.0000000000000000e+00  1.0106988844971190e+02 -7.5236489481521893e+00 0.0000000000000000e+00  9.8936758880826886e+01 -1.0060560941603436e+01 0.0000000000000000e+00  9.3460323551504260e+01 -8.5792445217109474e+01 0.0000000000000000e+00  8.7977530487396464e+01 -4.3057117428989365e+01 0.0000000000000000e+00  1.0388870950916078e+02 -1.4307677881924427e+01 0.0000000000000000e+00  8.4410048081611507e+01 -5.6473263900654175e+01 0.0000000000000000e+00  7.7912015291181390e+01 -8.7556715693236114e+01 0.0000000000000000e+00  9.3817299978844915e+01 -4.1411616007963879e+01 0.0000000000000000e+00  1.0047233239747345e+02 -2.5568233574493227e+01 0.0000000000000000e+00  9.5301973742190185e+01 -2.1562801522399297e+01 0.0000000000000000e+00  7.3887471437950776e+00 -1.8841097424281579e+00 0.0000000000000000e+00  1.0348972654735658e+02 -1.2550807304337528e+00 0.0000000000000000e+00  8.8483935442825427e+01 -2.7699537539368936e+01 0.0000000000000000e+00  1.0121076676663824e+02 -4.6396525410649097e+01 0.0000000000000000e+00  1.0256910456911238e+02 -4.2843001990604783e+00 0.0000000000000000e+00  1.0121532557413332e+02 -1.7420847272409548e+00 0.0000000000000000e+00  8.0005305455814792e+01 -3.8110304049021529e+01 0.0000000000000000e+00  9.6568961217602450e+01 -3.4806421197093321e+01 0.0000000000000000e+00  1.0114643549882864e+02 -9.6255255891085003e+00 0.0000000000000000e+00  9.6548307106793487e+01 -7.3351282217195731e+01 0.0000000000000000e+00  7.8776417588520161e+01 -6.4051371865554771e+01 0.0000000000000000e+00  1.0101187928506992e+02 -5.5498147514385359e+00 0.0000000000000000e+00  1.0050895590478912e+02 -1.1682147760249450e+01 0.0000000000000000e+00  8.6172439267822369e+01 -3.3933339720703138e+01 0.0000000000000000e+00  9.5390716614457375e+01 -1.7380273243443167e+01 0.0000000000000000e+00  3.6750182929947123e+01 -1.5551949891882370e+02 0.0000000000000000e+00  1.1176113780093475e+02 -1.0296969519138145e+02 0.0000000000000000e+00  9.7118288649740379e+01 -1.2081050129079334e+02 0.0000000000000000e+00  8.9599504671516783e+01 -2.4152307824586792e+01 0.0000000000000000e+00  1.0390110860506603e+02 -5.0177600794796975e+00 0.0000000000000000e+00  1.0537720160052602e+02 -1.7031651552961890e+01 0.0000000000000000e+00  9.2114994091558614e+01 -3.4688731685872298e+01 0.0000000000000000e+00  9.0553315370195236e+01 -2.0428963623321319e+01 0.0000000000000000e+00  1.0427352491073135e+02 -9.9884459686471558e+00 0.0000000000000000e+00  1.0407178315011306e+02 -7.1760287148148443e+00 0.0000000000000000e+00  1.0364542970991030e+02 -3.4306891593060316e+00 0.0000000000000000e+00  5.5020205996007057e+01 -1.3768467528410716e+02 0.0000000000000000e+00  5.8549023103152109e+01 -9.3276752539301114e+01 0.0000000000000000e+00  6.6859683834993348e+01 -1.0720024241597443e+02 0.0000000000000000e+00  9.6178813454689518e+01 -5.3177659474146274e+01 0.0000000000000000e+00  9.5836599818551093e+01 -4.6637009338573883e+01 0.0000000000000000e+00  9.8656532959336545e+01 -1.6486856307420428e+01 0.0000000000000000e+00  1.0425861571382687e+02 -2.1347555168551537e+01 0.0000000000000000e+00  8.5110033972363752e+01 -4.6691478226696333e+01 0.0000000000000000e+00  9.9584767865842608e+01 -6.9018577461499699e+00 0.0000000000000000e+00  1.9710543885480035e+01 -4.8242902177005025e+00 0.0000000000000000e+00  1.0169302029016428e+02 -2.4126563442909756e+02 0.0000000000000000e+00  9.9551193864853715e+01 -3.6875362095345920e+00 0.0000000000000000e+00  1.1327991344357618e+02 -1.4710887213340513e+02 0.0000000000000000e+00  9.7933948050341897e+01 -1.3455099833622572e+01 0.0000000000000000e+00  1.0153946575121078e+02 -5.8848856997070897e+01 0.0000000000000000e+00  8.5313437878647221e+01 -2.1973101026206546e+01 0.0000000000000000e+00  9.0995969928811448e+01 -2.9363422899254260e+01 0.0000000000000000e+00  1.0363847100098054e+02 -2.6844053014416064e-01 0.0000000000000000e+00  1.0555539209956078e+02 -7.9151891642027792e+01 0.0000000000000000e+00  9.9980214362438517e+01 -1.0270859694469402e+02 0.0000000000000000e+00  8.8849230308621657e+01 -3.1113351691644855e+01 0.0000000000000000e+00  9.2211139744748337e+01 -2.2307768040134661e+01 0.0000000000000000e+00  8.8398375542278487e+01 -3.8874623839621442e+01 0.0000000000000000e+00  8.9086710777135522e+01 -3.0258763134172558e+01 0.0000000000000000e+00  9.7704799639748359e+01 -1.8815765022424703e+01 0.0000000000000000e+00  7.4567481574726600e+01 -7.4443790574431873e+01 0.0000000000000000e+00  9.5549354025389022e+01 -1.7152118673465233e+02 0.0000000000000000e+00  8.5408705934041961e+01 -3.4123053641705567e+01 0.0000000000000000e+00  1.0229396450133126e+02 -1.6250052810717385e+01 0.0000000000000000e+00  8.0845397478612114e+01 -3.0333213259792664e+01 0.0000000000000000e+00  8.6436355404390468e+01 -6.2535435143841170e+01 0.0000000000000000e+00  9.5729162616629196e+01 -3.0268763264460301e+01 0.0000000000000000e+00  8.4011231014843375e+01 -3.2137016812585202e+01 0.0000000000000000e+00  1.0644334443670374e+02 -1.2747330267343623e+01 0.0000000000000000e+00  1.0469417130880254e+02 -1.2034487801446678e+01 0.0000000000000000e+00  8.5469153854275191e+01 -4.0869859895113251e+01 0.0000000000000000e+00  1.0226507457913533e+02 -1.2195728074365284e+00 0.0000000000000000e+00  8.7940612447931713e+01 -3.4705401234462549e+01 0.0000000000000000e+00  4.1160144497220010e+01 -1.8068238164835358e+02 0.0000000000000000e+00  8.6894080903824786e+01 -3.6836061586952312e+01 0.0000000000000000e+00  7.8115495150723234e+01 -5.0136115496038734e+01 0.0000000000000000e+00  8.6696106570960865e+01 -2.6787957341663386e+01 0.0000000000000000e+00  4.9415933459165068e+01 -1.1559554913825959e+02 0.0000000000000000e+00  9.1314039528926898e+01 -4.4616232265133995e+01 0.0000000000000000e+00  8.9499617277034247e+01 -3.4522129162561107e+01 0.0000000000000000e+00  1.0010874769551813e+02 -6.3442605828714619e+01 0.0000000000000000e+00  1.0185237314545861e+02 -1.2992888858645266e+01 0.0000000000000000e+00  9.0024233005146101e+01 -5.4957567136504316e+01 0.0000000000000000e+00  8.4550027258763748e+01 -2.4513293961440791e+01 0.0000000000000000e+00  8.7347666756070510e+01 -2.2873064968670725e+01 0.0000000000000000e+00  8.3775385588320646e+01 -1.3031813481077720e+02 0.0000000000000000e+00  9.1387418309845970e+01 -3.1227758664151619e+01 0.0000000000000000e+00  8.7492899334869776e+01 -3.1112537169130306e+01 0.0000000000000000e+00  1.0366850945291367e+02 -2.3221465973420892e+00 0.0000000000000000e+00  9.9103112862047027e+01 -1.2858281160944024e+01 0.0000000000000000e+00  3.0480175677662235e+01 -1.3897468616857344e+02 0.0000000000000000e+00  8.1391059168033308e+01 -3.7358820680661879e+01 0.0000000000000000e+00  8.7043217448497046e+01 -2.6211674465379446e+01 0.0000000000000000e+00  9.6529738615552731e+01 -3.8045090995284305e+01 0.0000000000000000e+00  7.8240751248460242e+01 -3.6376367348230680e+01 0.0000000000000000e+00  1.1037410189974995e+02 -2.4591011846044687e+01 0.0000000000000000e+00  6.7859859197427625e+01 -9.4402909970060279e+01 0.0000000000000000e+00  9.2689755186388240e+01 -6.6509865683990384e+01 0.0000000000000000e+00  1.0454525403257090e+02 -7.3922606526532775e-01 0.0000000000000000e+00  1.0025316009429766e+02 -8.8099055823136894e+00 0.0000000000000000e+00  1.0236947190278805e+02 -8.3660272934749329e+01 0.0000000000000000e+00  9.4887827731050507e+01 -1.9081819663336198e+01 0.0000000000000000e+00  8.6060867788118657e+01 -5.0882713732394471e+01 0.0000000000000000e+00  5.4718148274019853e+01 -1.2411135003498447e+02 0.0000000000000000e+00  6.8046429558504201e+01 -1.3978073849627364e+02 0.0000000000000000e+00  7.6102481886341195e+01 -1.1545891329235663e+02 0.0000000000000000e+00  9.8709960009295230e+01 -2.1527838565796532e+01 0.0000000000000000e+00  9.1692137791847955e+01 -2.9362840798909875e+01 0.0000000000000000e+00  8.3966215938829464e+01 -4.2393722689788916e+01 0.0000000000000000e+00  8.5609283984067176e+01 -4.3219828861070035e+01 0.0000000000000000e+00  1.0477823925781338e+02 -2.8399223653392647e+00 0.0000000000000000e+00  1.0287325067147705e+02 -9.9875084883220495e+00 0.0000000000000000e+00  1.0227510089382783e+02 -7.4469417686971049e+00 0.0000000000000000e+00  1.0425917206933258e+02 -8.6903314581146027e+00 0.0000000000000000e+00  8.5558167414847262e+01 -3.2169657592167404e+01 0.0000000000000000e+00  8.6664356176159131e+01 -3.2716208076020344e+01 0.0000000000000000e+00  8.1409192390265929e+01 -4.1114118211542056e+01 0.0000000000000000e+00  8.7600548545210543e+01 -3.0262846442406257e+01 0.0000000000000000e+00  9.2486223133310261e+01 -3.7341616716177974e+01 0.0000000000000000e+00  8.1452660326185722e+01 -2.7659438047183780e+01 0.0000000000000000e+00  1.0143617621542651e+02 -8.1820490725263484e-01 0.0000000000000000e+00  1.0069582438534104e+02 -2.4579195133498120e+00 0.0000000000000000e+00  4.0742166311843086e+01 -1.3685767641846545e+02 0.0000000000000000e+00  1.0551847893393482e+02 -9.3081059537615314e+00 0.0000000000000000e+00  1.0771533954807205e+02 -1.6607088684553567e+01 0.0000000000000000e+00  1.0496757455442904e+02 -4.7515528699015634e+00 0.0000000000000000e+00  7.2542959571667240e+01 -6.1572573210102249e+01 0.0000000000000000e+00  1.0513491428122940e+02 -7.3211299712290030e+00 0.0000000000000000e+00  6.5199381987924070e+01 -7.3410500670544209e+01 0.0000000000000000e+00  1.0002599862553944e+02 -9.7966883963327103e+00 0.0000000000000000e+00  9.4834924887753758e+01 -3.7781279079404079e+01 0.0000000000000000e+00  4.4406924412104445e+01 -1.4370779911996851e+02 0.0000000000000000e+00  9.9389926244564563e+01 -4.9847082895575589e+01 0.0000000000000000e+00  8.6510091444201080e+01 -3.8179215624860433e+01 0.0000000000000000e+00  8.3064308151161967e+01 -3.4801148867903756e+01 0.0000000000000000e+00  8.1498985174934134e+01 -3.7712275012452587e+01 0.0000000000000000e+00  8.3706916955278672e+01 -3.6062491254765163e+01 0.0000000000000000e+00  8.2022169425750747e+01 -8.0145307696474362e+01 0.0000000000000000e+00  9.8189633631873491e+01 -4.3583525230233484e+01 0.0000000000000000e+00  9.7132120952845298e+01 -1.6778315278082886e+01 0.0000000000000000e+00  1.0148435933453382e+02 -6.7422962213421105e+00 0.0000000000000000e+00  1.0457458247601517e+02 -2.9451313058568211e+01 0.0000000000000000e+00  8.5459896241057962e+01 -3.9085180847785786e+01 0.0000000000000000e+00  9.0555570453166283e+01 -7.7836974333487532e+01 0.0000000000000000e+00  8.5391384187276671e+01 -9.3473565923923260e+01 0.0000000000000000e+00  1.0182446245507923e+02 -8.5406931716805339e+00 0.0000000000000000e+00  9.8595446392217696e+01 -5.6588900320006950e+01 0.0000000000000000e+00  9.8745329543394362e+01 -1.4489464869975585e+01 0.0000000000000000e+00  8.9751902720532897e+01 -4.0266429355527706e+01 0.0000000000000000e+00  8.8585677991932002e+01 -2.5326998909191644e+01 0.0000000000000000e+00  9.0030667448133755e+01 -2.2222484509715883e+01 0.0000000000000000e+00  1.0763206028853809e+02 -1.1310551165003517e+02 0.0000000000000000e+00  1.0027738049612697e+02 -6.6213279875113855e+00 0.0000000000000000e+00  8.9286588625624589e+01 -3.2819198301763635e+01 0.0000000000000000e+00  7.8625689166961891e+01 -3.2194540727985817e+01 0.0000000000000000e+00  8.3206299303676545e+01 -2.5948689525824001e+01 0.0000000000000000e+00  6.7065866378395896e+01 -1.7506123219449472e+02 0.0000000000000000e+00  8.7484931401442836e+01 -3.6701582922721677e+01 0.0000000000000000e+00  8.0800400538224622e+01 -1.5244613878768388e+02 0.0000000000000000e+00  1.0180410215515347e+02 -3.4085489757038592e+00 0.0000000000000000e+00  1.0683390315104525e+02 -1.3284750840910155e+02 0.0000000000000000e+00  1.0034767621557646e+02 -4.8122746121435434e+00 0.0000000000000000e+00  1.1349425040808273e+02 -1.9746288145130055e+02 0.0000000000000000e+00  7.6887286411651203e+01 -2.4517415263128134e+02 0.0000000000000000e+00  8.3199710335891922e+01 -3.5877937813590911e+01 0.0000000000000000e+00  8.9889023460967877e+01 -2.5677277563986369e+01 0.0000000000000000e+00  9.5811146647314089e+01 -2.4768836330344197e+01 0.0000000000000000e+00  1.0321170114940558e+02 -1.8967281308781772e+01 0.0000000000000000e+00  9.3522905885905558e+01 -2.0515243308268595e+01 0.0000000000000000e+00  1.0561124477534096e+02 -1.3687307116824014e+01 0.0000000000000000e+00  1.0363440259264301e+02 -9.3007897668643025e+01 0.0000000000000000e+00  7.9582681611