<?xml version="1.0"?>
<VTKFile type="UnstructuredGrid"  version="0.1"  >
<UnstructuredGrid>
<Piece  NumberOfPoints="1981" NumberOfCells="3668">
<Points>
<DataArray  type="Float64"  NumberOfComponents="3"  format="ascii">-2 0.5 0  -2 0 0  -0.5 0 0  -0.4968561049466213 -0.05598223805165387 0  -0.4874639560909119 -0.1112604669781569 0  -0.4719416651541838 -0.1651395309775835 0  -0.4504844339512096 -0.216941869558779 0  -0.4233620996141421 -0.2660160382576682 0  -0.3909157412340148 -0.3117449009293669 0  -0.3535533905932738 -0.3535533905932737 0  -0.3117449009293669 -0.3909157412340148 0  -0.2660160382576683 -0.4233620996141421 0  -0.2169418695587791 -0.4504844339512095 0  -0.1651395309775836 -0.4719416651541837 0  -0.1112604669781573 -0.4874639560909118 0  -0.05598223805165402 -0.4968561049466213 0  -9.184850993605148e-17 -0.5 0  2 -0.5 0  2 0 0  0.5 0 0  0.4968561049466213 0.05598223805165393 0  0.4874639560909118 0.1112604669781572 0  0.4719416651541838 0.1651395309775835 0  0.4504844339512096 0.2169418695587791 0  0.4233620996141421 0.2660160382576683 0  0.3909157412340149 0.3117449009293667 0  0.3535533905932738 0.3535533905932737 0  0.3117449009293668 0.3909157412340149 0  0.2660160382576683 0.4233620996141421 0  0.2169418695587791 0.4504844339512096 0  0.1651395309775837 0.4719416651541837 0  0.1112604669781572 0.4874639560909118 0  0.05598223805165384 0.4968561049466213 0  3.061616997868383e-17 0.5 0  0.1398708344106534 0.05418624992807294 0  0.15 0 0  0.1398708344106534 -0.05418624992807295 0  0.1108513375830988 -0.1010543465469837 0  0.06686075336648065 -0.1342744937032594 0  0.01384025391949536 -0.1493601264442552 0  -0.04104944851081246 -0.1442738464759228 0  -0.09039519545688858 -0.1197025840920358 0  -0.1275325703594421 -0.07896482443160337 0  -0.1474459649525853 -0.02756242767248552 0  -0.1474459649525853 0.02756242767248555 0  -0.1275325703594421 0.07896482443160341 0  -0.09039519545688844 0.1197025840920359 0  -0.04104944851081243 0.1442738464759228 0  0.0138402539194953 0.1493601264442552 0  0.06686075336648074 0.1342744937032593 0  0.1108513375830989 0.1010543465469836 0  -1 0.5 0  1 -0.5 0  -1.25 0 0  -0.5 0.5 0  1.25 0 0  0.4999999999999999 -0.5 0  -1.5 0.5 0  1.5 -0.5 0  -0.875 0 0  0.875 0 0  -1.625 0 0  1.625 0 0  0.6875 -0.2500000000000001 0  -0.6875 0.25 0  -2 0.25 0  1.75 -0.5 0  0.2499999999999999 -0.5 0  -0.3583969912126916 0.25 0  0.3749999999999999 -0.25 0  -1.0625 0.21875 0  1.0625 -0.21875 0  -1.75 0.5 0  -1.25 0.5 0  -1.375 0.25 0  1.4375 -0.21875 0  2 -0.25 0  1.25 -0.5 0  1.7375 -0.2375 0  -1.7375 0.2375 0  0.75 -0.5 0  -0.75 0.5 0  -0.25 0.5 0  -0.1570377317087672 0.3153742794659282 0  0.1249999999999999 -0.3338777090152827 0  -0.8826650943396226 0.3263561320754717 0  0.8826650943396227 -0.3263561320754717 0  1.25 -0.1897321428571428 0  1.4375 0 0  -1.4375 0 0  1.0625 0 0  -1.0625 0 0  -0.6875 0 0  0.6875 0 0  1.8125 0 0  -1.8125 0 0  0.3263011380546194 -0.06940056902730968 0  -1.554017857142857 0.1790178571428572 0  0.08847100915780901 0.3109433440851622 0  -0.2412983234264066 -0.2156373655531345 0  -1.625 0.3744047619047619 0  1.625 -0.3744047619047619 0  0.2743272717766799 0.1698562554772697 0  -0.3279338175957848 0.06764246763930631 0  -1.863068181818182 0.3630681818181818 0  2 -0.375 0  1.875 -0.5 0  -0.05442366733490933 -0.3203147637646457 0  1.321986607142857 -0.3448660714285714 0  1.125 -0.5 0  -1.209821428571429 0.3236607142857143 0  -0.5229484956063458 0.1781011282952406 0  0.9067445847815293 -0.1625224987586892 0  -0.8335714777578845 0.1642411083184135 0  -1.237063437253354 0.1627182813733228 0  -0.4947697009489606 0.3378596801347012 0  0.53125 -0.171875 0  0.5156249999999999 -0.3359375 0  -2 0.125 0  1.873225308641975 -0.1497685185185185 0  0.2341337966231563 -0.1911191776024666 0  -0.625 0.5 0  1.587453076345555 -0.2288757784711196 0  1.8125 -0.3654761904761905 0  -0.3326862624810256 -0.08869875963335262 0  -0.375 0.5 0  1.174048204529175 -0.319244854540162 0  -1.067618031042359 0.3674567846760797 0  -0.96875 0.109375 0  1.481463366596639 -0.3565498074229692 0  1.023503306098383 -0.3576535124663073 0  -0.2265388519390893 0.1866542405407749 0  0.625 -0.5 0  -1.852445652173913 0.1432065217391304 0  -1.375 0.5 0  -1.479101577239454 0.3541992113802732 0  0.2708871299591885 -0.3541935649795943 0  1.520204106978579 -0.109375 0  0.78125 -0.1026731411563172 0  -0.3125 0.3785994323952442 0  0.3749999999999999 -0.5 0  1.141568346088435 -0.109375 0  1.358431653911565 -0.109375 0  1.668712727161379 -0.1246887081867154 0  -1.673050595238095 0.1226339285714286 0  -1.34375 0 0  -1.431523109243698 0.1313182773109244 0  -0.7546231943577876 0.3660317014105531 0  -0.6233296454587935 0.3645528204344609 0  0.7546231943577878 -0.3660317014105531 0  0.6537002726710706 -0.125 0  -0.6441338591766993 0.125 0  1.375 -0.5 0  -2 0.375 0  -1.875 0.5 0  1.625 -0.5 0  -1.625 0.5 0  0.875 -0.5 0  -0.875 0.5 0  0.1249999999999999 -0.5 0  -0.125 0.5 0  2 -0.125 0  -1.125 0.5 0  -1.354082022940739 0.375 0  -0.03500388138134332 0.2732363193989585 0  0.3955099577726473 -0.3752808566622692 0  0.3596026196703111 0.0631070919012526 0  -0.0625 0.394061918116807 0  0.6342080192637126 -0.3582597885274255 0  -1.123666900137815 0.109375 0  -1.744588744588745 0.3803841991341991 0  0.2210084381421171 0.2925777566973838 0  0.8072251313743133 -0.2315819627814412 0  -0.1814335426834733 -0.3282792760620681 0  -0.9356634513979559 0.2218154628239019 0  0.4183753556420685 -0.1414382112841371 0  -0.1238894550978499 -0.2292394949250368 0  0.96875 0 0  1.013652292192466 -0.1102204462032291 0  -0.4393328341626322 0.09834605222123384 0  1.882206434331873 -0.2686982850037661 0  0.1426699461850768 0.2146575767791519 0  -1.886304127069339 0.251758104550396 0  0.2495743011762567 0.06264742837969955 0  -0.78125 0 0  0.04042933102838756 -0.2590839715717854 0  -1.53125 0 0  -0.5823692714154002 0.2663576540687616 0  -0.2594008044921133 0.2871583817002197 0  -0.9375 0.4157678007976423 0  0.9696186653311423 -0.2675997292662616 0  -0.7942971416386473 0.2646257048857303 0  0.06249999999999992 -0.4169388545076413 0  0.1874999999999999 -0.4169388545076413 0  -1.562839467699977 0.2864000626355251 0  -0.1875 0.4157529178973974 0  -0.1223698320396133 0.2179970721626365 0  1.770639498024741 -0.1399156735731578 0  0.9367002721196375 -0.4157324987180338 0  -1.90625 0 0  -0.2298618769854927 -0.08904896555277285 0  0.1397131066802196 -0.232031643549068 0  -0.4375 0.420861596936145 0  -0.3483554784186823 -0.1925292675214375 0  0.59375 0 0  -1.327632151430252 0.1057660692693074 0  -0.9830051201906395 0.3115204496273563 0  1.90625 0 0  1.236354269160391 -0.3993990952861421 0  -1.1875 0.4214935578661845 0  0.5625 -0.4247705455161483 0  -0.7349377422908023 0.1635199768201956 0  -1.583328550170068 0.08705835459183674 0  -1.640104497493491 0.2259991665335075 0  -1.467109316827997 0.2210671404637805 0  0.5896070530325394 -0.2690578560650788 0  0.3266472067106532 -0.167734762534917 0  -0.59375 0 0  -0.546875 0.08448914438556519 0  1.71875 0 0  1.156078290691277 -0.2031315651260504 0  1.337704613095238 -0.2433035714285714 0  1.236312294597949 -0.09486607142857142 0  0.1642123379155914 0.3701207892454864 0  0.2345507206108115 -0.04384512844718241 0  -0.4048861533022036 -0.02273791864794379 0  0.03798857341016919 0.3979165301900267 0  -0.4006523628802168 0.334179001454817 0  -0.1135990210174155 -0.393340785880617 0  1.906775738056482 -0.3598876272511091 0  1.720393990929705 -0.4044642857142857 0  -1.71875 0 0  1.15625 0 0  0.78125 0 0  1.53125 0 0  -0.96875 0 0  1.34375 0 0  -1.15625 0 0  1.142828909845958 -0.4078056758504979 0  0.40697192225457 -0.01923608979840619 0  -1.767708120728825 0.08966855818957545 0  -0.6882384924227143 0.4308047125515967 0  -0.3636785153797087 0.1553944795036722 0  -0.2291274285977749 0.08616080495998404 0  -0.281012338688557 -0.01202669255906096 0  0.3108677056378212 0.2586754570559801 0  -1.151751953043632 0.196872287087452 0  -0.5625 0.4330368698813529 0  0.6875 -0.4328910527173583 0  1.405021000845949 -0.3057191080886871 0  0.546875 -0.08025568181818182 0  0.3713523302229579 0.1599284134935842 0  -1.12196127795563 0.2911449911382941 0  -1.276991293863022 0.2522534749828799 0  1.255195006158927 -0.2798057638555942 0  -0.8388532729558951 0.4114132763440825 0  0.8388532729558953 -0.4114132763440825 0  -0.4557763550657601 0.2486174768248819 0  0.2049883534781638 -0.2934473685517857 0  0.3226059585583683 -0.4273378498573185 0  -1.426982449282418 0.4270508114904024 0  1.397702183984896 -0.4056170514003312 0  0.05467855045156804 0.2285245978493705 0  -0.272823163096586 -0.3046204408381326 0  -0.02656096412551515 -0.4126877256833236 0  -1.807235369718798 0.2933328120993839 0  0.1906985117418444 0.1399478964461678 0  -1.688085622354259 0.3115694793217502 0  1.659329587961023 -0.2879395206246994 0  -1.5625 0.437202380952381 0  1.546313524296827 -0.4210926184041992 0  -1.813279560389256 0.4363923695021056 0  -1.926524548924358 0.4265245489243581 0  -0.1751061200004134 -0.1578066000831913 0  0.2891187728554643 -0.268298186700636 0  0.4721679687499999 -0.2490234375 0  0.7276683718449491 -0.1720688736051095 0  0.4744973194747868 -0.4152356216385488 0  0.9322020604693165 -0.07914563824612769 0  -1.275602471792197 0.4154857864535745 0  -0.828125 0.07552171441918698 0  1.3125 -0.5 0  -1.931646474339171 0.178059096704675 0  -0.7167268019830385 0.08016211756451477 0  1.060414578698922 -0.4368616551407768 0  -1.6875 0.5 0  1.9375 -0.5 0  1.739833210773432 -0.3220974693894793 0  -2 0.3125 0  -1.207440692409131 0.07848980221212992 0  -0.04055821595704934 -0.2377097412335854 0  0.1922531441870086 -0.1190381071624572 0  1.509237778147088 -0.2717758217431455 0  0.8901922386429052 -0.2437760747352658 0  -1.498530569603453 0.07867879855510211 0  0.9849923856958628 -0.1870513965806273 0  1.515605916195201 -0.1906351698786736 0  1.439317880445072 -0.08458133750179306 0  1.932491348856277 -0.2050969650933771 0  1.828075655121533 -0.08087981225769847 0  1
[...]
<PointData  Vectors="f_39"> 
<DataArray  type="Float64"  Name="f_39"  NumberOfComponents="3" format="ascii">4.3209054392452153e+01 -1.0084154048295630e+00 0.0000000000000000e+00  3.9701212434368611e+00 -1.9310674777040036e+00 0.0000000000000000e+00  1.2329521020891287e+01 -1.0137182007118696e+01 0.0000000000000000e+00  6.2000101692464131e+00 -1.2182355799113216e+01 0.0000000000000000e+00  3.8141030939768008e+00 -1.0106040084375701e+01 0.0000000000000000e+00  3.2497015844996811e+00 -7.6995202430080569e+00 0.0000000000000000e+00  3.4923699995309749e+00 -6.5990176697692906e+00 0.0000000000000000e+00  4.0499460608263131e+00 -5.7622476286436566e+00 0.0000000000000000e+00  4.1895133861850331e+00 -5.1501093487401644e+00 0.0000000000000000e+00  4.5007967604650752e+00 -4.7041476355335865e+00 0.0000000000000000e+00  5.1859937605046023e+00 -3.7297795010790291e+00 0.0000000000000000e+00  5.3216933630122156e+00 -3.3203845160502725e+00 0.0000000000000000e+00  5.6772444436803626e+00 -2.7287585097413589e+00 0.0000000000000000e+00  5.9891450531291905e+00 -2.1738096676249277e+00 0.0000000000000000e+00  6.2125574793215463e+00 -1.7659206650595596e+00 0.0000000000000000e+00  6.7829961480701728e+00 -8.7848633428353995e-01 0.0000000000000000e+00  7.4395470425239090e+00 -5.5999938032640439e-01 0.0000000000000000e+00  1.3000384761780600e+01 7.3637161999745516e-04 0.0000000000000000e+00  1.3000885977344604e+01 -5.9015646526071157e-04 0.0000000000000000e+00  1.0907375235700556e+01 -1.0684310189585387e+01 0.0000000000000000e+00  5.9405709585194906e+00 -1.2178364272765117e+01 0.0000000000000000e+00  3.4630909972628015e+00 -9.6021297537716581e+00 0.0000000000000000e+00  3.1119365828991818e+00 -8.1066599261849905e+00 0.0000000000000000e+00  3.5519230645127262e+00 -6.7125778663958293e+00 0.0000000000000000e+00  3.7941635535163885e+00 -5.7885332629916935e+00 0.0000000000000000e+00  4.3970743466707747e+00 -5.0026649902097384e+00 0.0000000000000000e+00  4.6695168802845339e+00 -4.5317824410369028e+00 0.0000000000000000e+00  4.9757654964525235e+00 -3.9328622823308717e+00 0.0000000000000000e+00  5.1734168765336008e+00 -3.4853912096018949e+00 0.0000000000000000e+00  5.7658817152568451e+00 -2.6395546033003372e+00 0.0000000000000000e+00  5.9033886385659127e+00 -2.1676863874681231e+00 0.0000000000000000e+00  6.3390904770298544e+00 -1.5823820814340850e+00 0.0000000000000000e+00  6.5589224988899417e+00 -1.1853151595483287e+00 0.0000000000000000e+00  7.3735929428774858e+00 -4.7738410872385068e-01 0.0000000000000000e+00  5.6909386233301174e+00 -9.4261091943740958e+00 0.0000000000000000e+00  3.1503302573414564e+00 -7.1730304904109881e+00 0.0000000000000000e+00  2.7575060697213889e+00 -2.4995740857939128e+00 0.0000000000000000e+00  4.8636537637053801e+00 7.1854358408184438e-01 0.0000000000000000e+00  8.7202145319968150e+00 2.1926333386445025e+00 0.0000000000000000e+00  1.1906176595646137e+01 6.0011915265813774e-04 0.0000000000000000e+00  1.2325241397249023e+01 -4.9284496426744315e+00 0.0000000000000000e+00  1.0397821938217600e+01 -7.9580605595656868e+00 0.0000000000000000e+00  7.6671504832711364e+00 -9.2714330270862924e+00 0.0000000000000000e+00  3.9809957941928884e+00 -8.1245451431832301e+00 0.0000000000000000e+00  2.3596714608249649e+00 -5.4532502650998698e+00 0.0000000000000000e+00  4.1043220205117166e+00 -5.2807399072622785e-01 0.0000000000000000e+00  7.1717973398100829e+00 1.8160533364180727e+00 0.0000000000000000e+00  1.0800525412783424e+01 1.4939650463026948e+00 0.0000000000000000e+00  1.2672218955219151e+01 -3.0695603570102410e+00 0.0000000000000000e+00  1.2486464924603210e+01 -4.8956455900471427e+00 0.0000000000000000e+00  7.9916779976549837e+00 -9.5320490856818338e+00 0.0000000000000000e+00  1.2876116459352387e+01 -2.8259535983953869e-02 0.0000000000000000e+00  1.2859041376840159e+01 -3.0419419469051582e-02 0.0000000000000000e+00  1.2946638736596809e+01 -1.8509231624367128e-02 0.0000000000000000e+00  1.1065250441317398e+01 -2.3811952588193136e-01 0.0000000000000000e+00  1.3031407712623892e+01 -5.0008988076852869e-03 0.0000000000000000e+00  1.1133762119042169e+01 -2.4376859567043846e-01 0.0000000000000000e+00  1.3442996503054458e+01 -8.4162238799975309e-02 0.0000000000000000e+00  1.2994352951661508e+01 -1.0914860430390806e-03 0.0000000000000000e+00  1.3327134631873832e+01 -6.5499740583146893e-02 0.0000000000000000e+00  1.3324087052303305e+01 -7.3124709936359111e-02 0.0000000000000000e+00  1.2120306145392014e+01 -1.7154463486674593e-01 0.0000000000000000e+00  1.3002821859643403e+01 -9.7684567858891198e-05 0.0000000000000000e+00  1.2803867026629460e+01 -1.0348912870488256e+00 0.0000000000000000e+00  1.2801788603588935e+01 -9.0100185260764609e-01 0.0000000000000000e+00  2.5848305886247729e+01 -7.6852074067714717e+00 0.0000000000000000e+00  1.2998699865375986e+01 1.0203727498186632e-03 0.0000000000000000e+00  9.2637382948550560e+00 -1.4312234816222436e-01 0.0000000000000000e+00  9.7579790692197204e+00 -2.1904897506685703e+00 0.0000000000000000e+00  9.8983219250864174e+00 -2.2321548684892809e+00 0.0000000000000000e+00  1.3008777885441628e+01 -1.1955495905451918e-01 0.0000000000000000e+00  1.3012833627022836e+01 -9.6447115167455577e-02 0.0000000000000000e+00  1.4994870620635345e+01 -2.2417842306368860e-01 0.0000000000000000e+00  1.3052297675091094e+01 -2.5344963609167836e-02 0.0000000000000000e+00  1.2997221817456138e+01 -2.0359147347632287e-01 0.0000000000000000e+00  1.3003173603309868e+01 -8.4851983067070567e-03 0.0000000000000000e+00  1.3000889375972834e+01 2.6568614724358412e-05 0.0000000000000000e+00  1.2974157066210628e+01 -5.5921391821630775e-03 0.0000000000000000e+00  1.2999873881240028e+01 -1.1299839601665153e-03 0.0000000000000000e+00  1.2885727080640557e+01 -1.9250587736156199e+00 0.0000000000000000e+00  1.2382174028250823e+01 -9.0162725558534523e-02 0.0000000000000000e+00  1.2452268766641101e+01 -8.3213897274730789e-02 0.0000000000000000e+00  9.3288718888839117e+00 -1.9499678639554005e-01 0.0000000000000000e+00  8.7032057640946476e+00 -8.4428580668884501e-01 0.0000000000000000e+00  8.6580081015504824e+00 -8.0121943815159247e-01 0.0000000000000000e+00  1.2842653468395941e+01 -2.2767322550873637e-01 0.0000000000000000e+00  1.2854295302420965e+01 -2.3506724400496881e-01 0.0000000000000000e+00  1.3009191118624576e+01 -2.7858313511465931e-02 0.0000000000000000e+00  1.3009558386880466e+01 -1.1028850568904432e-03 0.0000000000000000e+00  1.2739021185757760e+01 -4.3514506329470300e-02 0.0000000000000000e+00  1.3095331425798530e+01 -1.6291893202328763e-02 0.0000000000000000e+00  1.3076938049429854e+01 -1.7148099462365469e-02 0.0000000000000000e+00  1.4115489202089263e+01 -2.4655903581096089e-01 0.0000000000000000e+00  1.4351296903720876e+01 -2.9869503969491484e-01 0.0000000000000000e+00  1.3000139398567624e+01 -1.7743323936043732e-04 0.0000000000000000e+00  1.0042109730794978e+01 -5.7955012578465837e-01 0.0000000000000000e+00  7.6391344177907321e+00 -5.4376473792724695e+00 0.0000000000000000e+00  1.2762807386249250e+01 -5.0551923680348665e-01 0.0000000000000000e+00  8.1021820727352178e+00 -3.0990728827262171e+00 0.0000000000000000e+00  6.3383300842394599e+00 -5.8244125775427813e+00 0.0000000000000000e+00  1.3612701652561297e+01 -6.5772566226886564e-01 0.0000000000000000e+00  1.2998729975731504e+01 -1.6079755246450030e-03 0.0000000000000000e+00  6.0197825888256604e+00 -6.7255894391664617e+00 0.0000000000000000e+00  7.7895852387999680e+00 -5.3615216503198937e+00 0.0000000000000000e+00  1.5948039183408632e+01 -3.1995733546163239e+00 0.0000000000000000e+00  1.2997423168990709e+01 1.0516096832947862e-04 0.0000000000000000e+00  1.2998252783829731e+01 9.1397806770492909e-04 0.0000000000000000e+00  8.3368284004881907e+00 -2.4719891257391140e+00 0.0000000000000000e+00  1.2990855036334899e+01 -1.4201329511436628e-02 0.0000000000000000e+00  1.2938908430276015e+01 -1.3164859039496223e-02 0.0000000000000000e+00  1.3009972303558996e+01 -9.5091894141205682e-02 0.0000000000000000e+00  1.2484833783770856e+01 -2.6848383408793883e+00 0.0000000000000000e+00  1.3137800242731755e+01 -2.3306909963540923e-01 0.0000000000000000e+00  1.3181028794685155e+01 -3.6567132280205750e-01 0.0000000000000000e+00  1.2975785804886018e+01 -1.0044325983908674e-01 0.0000000000000000e+00  1.1267697669595425e+01 -1.1566521207148821e+00 0.0000000000000000e+00  1.2698949761457273e+01 -2.7612860090918425e+00 0.0000000000000000e+00  1.1313289971691123e+01 -1.1517945105127760e+00 0.0000000000000000e+00  1.4628870271248651e+01 -6.1771789721411219e+00 0.0000000000000000e+00  1.2999953618307098e+01 -4.1173132298879292e-04 0.0000000000000000e+00  7.7751877650637153e+00 -1.7900668309004606e+00 0.0000000000000000e+00  1.1889304046792061e+01 -1.7185951231839455e-01 0.0000000000000000e+00  1.3000830239756320e+01 -3.6671683099992044e-03 0.0000000000000000e+00  1.2998288870614239e+01 -1.2908769387094958e-03 0.0000000000000000e+00  5.6688902692292169e+00 -7.5578281886730139e+00 0.0000000000000000e+00  1.0149570829731221e+01 -2.4745632219182592e-01 0.0000000000000000e+00  1.2978232976846375e+01 -4.1973765082250071e-02 0.0000000000000000e+00  1.2959617781985916e+01 -9.1380560354785922e-02 0.0000000000000000e+00  1.3122896230144168e+01 -1.2459467684632286e-01 0.0000000000000000e+00  1.2996327158827436e+01 -5.3305174623524314e-03 0.0000000000000000e+00  1.2928372065549908e+01 -9.0734953923416684e-02 0.0000000000000000e+00  7.4811951136519657e+00 -1.7760281776454594e+00 0.0000000000000000e+00  1.1884100459062077e+01 -1.8244527332131752e-01 0.0000000000000000e+00  1.0409713275932607e+01 -3.0920777988203358e+00 0.0000000000000000e+00  1.3177571810060346e+01 -3.2050788268936363e-02 0.0000000000000000e+00  1.3234154128492474e+01 -2.8432675004750868e-01 0.0000000000000000e+00  9.2527939166065885e+00 -1.0615034754874482e+00 0.0000000000000000e+00  1.3004869007608557e+01 -3.3084563584153612e-03 0.0000000000000000e+00  1.3459773773967587e+01 -4.2472654314039082e-01 0.0000000000000000e+00  9.5387459001817412e+00 -9.2244572931169344e-01 0.0000000000000000e+00  1.0131783816053298e+01 -1.7521706353063771e-01 0.0000000000000000e+00  1.3044586394473242e+01 -3.7608672803498853e-02 0.0000000000000000e+00  1.3011162181200669e+01 -1.0038464490294708e-02 0.0000000000000000e+00  1.3001641250893428e+01 -1.2699339458545969e-03 0.0000000000000000e+00  1.2147205743238137e+01 -9.2842080385231962e-01 0.0000000000000000e+00  1.2852313407433611e+01 -3.2839225042844131e-02 0.0000000000000000e+00  1.2814638662086708e+01 -1.9885232804161032e-01 0.0000000000000000e+00  1.2552132818246813e+01 -3.7497038805214911e-01 0.0000000000000000e+00  1.2045115777935422e+01 -7.2789038666736394e-01 0.0000000000000000e+00  1.2555205130968890e+01 -4.2134726095505681e-01 0.0000000000000000e+00  1.3618040324193009e+01 -1.2778958761604222e+00 0.0000000000000000e+00  1.3804161346786389e+01 -1.3009599361533315e+00 0.0000000000000000e+00  1.2986712367858528e+01 -2.8625139112030355e-03 0.0000000000000000e+00  3.5792713563742772e+01 -5.5804987504540673e+00 0.0000000000000000e+00  1.7819604136981567e+01 -7.6063775264351852e-01 0.0000000000000000e+00  1.2997434081286903e+01 3.2266886713887928e-04 0.0000000000000000e+00  1.3883913889024535e+01 -1.4946616222930573e-01 0.0000000000000000e+00  1.2720734424264212e+01 -6.3202553541246209e-02 0.0000000000000000e+00  1.2735895326059657e+01 -4.3905704269672094e-02 0.0000000000000000e+00  8.4786279113682728e+00 -1.5038618936050024e-01 0.0000000000000000e+00  8.4783593115672691e+00 -2.1580738050124251e-01 0.0000000000000000e+00  1.2997930340599284e+01 6.2683336001637959e-04 0.0000000000000000e+00  1.2981071854578998e+01 -2.1538076632418888e-02 0.0000000000000000e+00  1.3112016281497436e+01 -1.2475039733809415e-01 0.0000000000000000e+00  9.2285645145566608e+00 -1.1377404472732622e+00 0.0000000000000000e+00  1.0275280069172798e+01 -9.7883425082772801e-01 0.0000000000000000e+00  5.9558339376383573e+00 -7.9372454853452421e+00 0.0000000000000000e+00  8.3291348028627219e+00 -8.6748554308919823e-01 0.0000000000000000e+00  1.2151046941125825e+01 -7.5628078167898460e-01 0.0000000000000000e+00  1.3024646471607502e+01 -6.9293250223747216e-02 0.0000000000000000e+00  1.4400904928739791e+01 -1.2961990795303178e+00 0.0000000000000000e+00  6.5255846547304888e+00 -4.5493734193683180e+00 0.0000000000000000e+00  1.3025204882958020e+01 -4.6405081006460486e-01 0.0000000000000000e+00  6.6289533062878547e+00 -3.7764934237095895e+00 0.0000000000000000e+00  1.3035741536678078e+01 -2.2749694623464756e-01 0.0000000000000000e+00  1.0557967824152639e+01 -4.3786292274781919e+00 0.0000000000000000e+00  8.5398371261230732e+00 -4.8229081043272153e+00 0.0000000000000000e+00  1.3200312949794565e+01 -3.4674476004090175e-02 0.0000000000000000e+00  1.3100409348183019e+01 -8.4933263071883314e-02 0.0000000000000000e+00  1.1200906451986413e+01 -5.4791102054483201e+00 0.0000000000000000e+00  1.2999017519679439e+01 -2.0214052777026834e-04 0.0000000000000000e+00  8.5450675411343404e+00 -5.5038603373873354e+00 0.0000000000000000e+00  1.3097434203610902e+01 -4.6670751930680039e+00 0.0000000000000000e+00  5.6067809277939453e+00 -7.5388477851321003e+00 0.0000000000000000e+00  1.3621630764496690e+01 -1.1396641167998778e-01 0.0000000000000000e+00  9.4097878512269428e+00 -9.2914247175568532e-01 0.0000000000000000e+00  1.2495748451903449e+01 -9.4444133382768400e-02 0.0000000000000000e+00  1.2186090144014104e+01 -1.5046710965132482e+00 0.0000000000000000e+00  8.9616893007880840e+00 -1.4442348910287919e+00 0.0000000000000000e+00  1.2844982299384858e+01 -9.1651708330887996e-02 0.0000000000000000e+00  1.2974812913094899e+01 -1.6995426079230069e-01 0.0000000000000000e+00  1.2913095356055454e+01 -4.9342840945318689e-01 0.0000000000000000e+00  8.1045037615995490e+00 -7.2727476018114001e-01 0.0000000000000000e+00  8.8972189430710120e+00 -4.3751837374586244e-01 0.0000000000000000e+00  1.3146730203749840e+01 -5.9061689630848369e-01 0.0000000000000000e+00  8.8824434026458245e+00 -4.9715396396751815e-01 0.0000000000000000e+00  8.1779057247865286e+00 -7.4381571743060482e-02 0.0000000000000000e+00  1.2999802455958159e+01 -8.7583709317610287e-04 0.0000000000000000e+00  1.2812152338457237e+01 -8.9476984576450938e-02 0.0000000000000000e+00  7.5751284444066789e+00 -1.0993751329874242e+00 0.0000000000000000e+00  5.9397252367859048e+00 -7.6613080341281812e+00 0.0000000000000000e+00  8.4511043868073781e+00 -3.7278373913615570e-01 0.0000000000000000e+00  1.0711442416010321e+01 -6.1102611584522215e-01 0.0000000000000000e+00  4.9773224335075090e+00 -6.6352497785746856e+00 0.0000000000000000e+00  1.6012783039335030e+01 -1.4034245910571870e+00 0.0000000000000000e+00  1.2902616472529758e+01 -1.0145341682831582e-01 0.0000000000000000e+00  1.2939072441974480e+01 -1.5973766936436148e-01 0.0000000000000000e+00  1.3000212060035063e+01 -1.0058573911338878e-03 0.0000000000000000e+00  1.2971314142644315e+01 -2.0507800182804209e-02 0.0000000000000000e+00  1.3012412775725018e+01 -4.8857734472742158e-02 0.0000000000000000e+00  1.1518789371443992e+01 -5.1865712835978839e-01 0.0000000000000000e+00  1.3305691186024102e+01 -7.4502877049118166e-01 0.0000000000000000e+00  1.2428596418763771e+01 -3.8038978173649729e-01 0.0000000000000000e+00  1.2847371617385420e+01 -1.0058866867129843e+00 0.0000000000000000e+00  1.2923276104355567e+01 -3.3373652087662509e-01 0.0000000000000000e+00  1.2210831107581878e+01 -1.4820231157340684e+00 0.0000000000000000e+00  8.8324680248561958e+00 -3.4257636985486504e+00 0.0000000000000000e+00  1.6084207000937546e+01 -1.2760439784454913e+00 0.0000000000000000e+00  1.5043990454505177e+01 -3.3087143326161215e+00 0.0000000000000000e+00  1.3001834907199727e+01 -2.2384013595665874e-04 0.0000000000000000e+00  1.3015492231978447e+01 -5.3249500947887676e-02 0.0000000000000000e+00  1.3000105439224148e+01 -1.6739838742804877e-02 0.0000000000000000e+00  1.3025957255134234e+01 -1.9220283156489940e-02 0.0000000000000000e+00  6.6467329464860798e+00 -3.1081149192754776e+00 0.0000000000000000e+00  5.1474573069012353e+00 -4.5027439608071465e+00 0.0000000000000000e+00  7.5995166746215368e+00 -9.4611407146273923e+00 0.0000000000000000e+00  7.6797321761846709e+00 -1.4267146523294261e+00 0.0000000000000000e+00  1.0359789805330704e+01 -1.3734811913308267e+00 0.0000000000000000e+00  6.8979262152796057e+00 -2.3148519063950936e+00 0.0000000000000000e+00  1.3000117843561464e+01 -4.6580715352668389e-05 0.0000000000000000e+00  1.2998445949921434e+01 -9.4209442196797660e-04 0.0000000000000000e+00  1.1196987759769634e+01 -2.8929582697190931e-01 0.0000000000000000e+00  1.3052467676187122e+01 -8.4115722885835850e-03 0.0000000000000000e+00  1.3580462721604540e+01 -1.5087951031370697e-01 0.0000000000000000e+00  1.3005782205962817e+01 -5.6558614382898678e-04 0.0000000000000000e+00  1.3161733076471888e+01 -2.5392999827508634e-02 0.0000000000000000e+00  1.3017073438480672e+01 -2.4583290917168884e-03 0.0000000000000000e+00  1.3008649641407755e+01 -1.6669076241540650e-02 0.0000000000000000e+00  1.2958647732726254e+01 -2.9844063805205007e-02 0.0000000000000000e+00  9.5765030721200812e+00 -8.2015386024160755e+00 0.0000000000000000e+00  1.1196776272928807e+01 -1.2746450230397190e+00 0.0000000000000000e+00  1.2232018616841412e+01 -2.6072777673615544e-01 0.0000000000000000e+00  9.4707803228266094e+00 -3.7367285922803113e+00 0.0000000000000000e+00  5.4842545764092572e+00 -3.3557029065020170e+00 0.0000000000000000e+00  5.8716346940336823e+00 -6.8836983847392430e+00 0.0000000000000000e+00  5.0484471194148011e+00 -5.3841326081057854e+00 0.0000000000000000e+00  1.3001207400570676e+01 -9.6843774605155378e-02 0.0000000000000000e+00  1.1581886990399097e+01 -4.7256776277189050e-01 0.0000000000000000e+00  1.2276030102304041e+01 -2.9326074004491914e-01 0.0000000000000000e+00  1.2995093248859181e+01 -1.1528065559680572e-02 0.0000000000000000e+00  1.4364259527259874e+01 -4.1587955006146986e+00 0.0000000000000000e+00  4.8523830873107983e+00 -7.2625502108819422e+00 0.0000000000000000e+00  1.2991821368850493e+01 -1.0093902136980618e-01 0.0000000000000000e+00  1.2998896007451226e+01 -1.2852950221500956e-01 0.0000000000000000e+00  1.2994969979714353e+01 -2.7234907958433221e-02 0.0000000000000000e+00  1.2684769256279846e+01 -1.9209491405973916e-01 0.0000000000000000e+00  1.2693018548018243e+01 -1.8353982182651382e-01 0.0000000000000000e+00  1.0983161876392330e+01 -2.4073838933791465e+00 0.0000000000000000e+00  8.7156619947310823e+00 -1.1084130809006376e+00 0.0000000000000000e+00  9.6956013023884413e+00 -6.0630824037007880e-01 0.0000000000000000e+00  1.3228577429373306e+01 -1.1288482307476502e-01 0.0000000000000000e+00  1.2991280011119514e+01 -6.4543548557496437e-03 0.0000000000000000e+00  1.0353604055678408e+01 -3.4729340127954562e+00 0.0000000000000000e+00  5.5634793581360755e+00 -4.6932093671513542e+00 0.0000000000000000e+00  7.6425195919192701e+00 -1.3623055336635230e+00 0.0000000000000000e+00  1.3760928794872862e+01 -2.6390524502983448e+00 0.0000000000000000e+00  7.5285427043692179e+00 -7.5171057141766768e+00 0.0000000000000000e+00  1.3435738959154628e+01 -1.2676458959030081e+00 0.0000000000000000e+00  1.2999135081478014e+01 -2.2048179548868081e-03 0.0000000000000000e+00  1.3565714529804398e+01 -2.4957412017989339e-01 0.0000000000000000e+00  1.2996107152777459e+01 -2.3996035140458278e-03 0.0000000000000000e+00  1.5680733412580445e+01 -1.0758625878455785e+00 0.0000000000000000e+00  1.8949098606227537e+01 -2.9746024493963708e+00 0.0000000000000000e+00  7.7903891730265169e+00 -7.2483010450959187e+00 0.0000000000000000e+00  9.0392337112373831e+00 -1.6002998077230959e+00 0.0000000000000000e+00  1.1175680897522135e+01 -2.2635418422424212e+00 0.0000000000000000e+00  1.3261868982054734e+01 -8.7101587250231083e-01 0.0000000000000000e+00  1.0948848509405542e+01 -6.8367604483707045e-01 0.0000000000000000e+00  1.3214512946229172e+01 -1.0809500968481890e-01 0.0000000000000000e+00  1.3070192786487297e+01 -6.3953434311566873e-02 0.0000000000000000e+00  1.3363668919487008e+01 -