<?xml version="1.0"?>
<VTKFile type="UnstructuredGrid"  version="0.1"  >
<UnstructuredGrid>
<Piece  NumberOfPoints="1981" NumberOfCells="3668">
<Points>
<DataArray  type="Float64"  NumberOfComponents="3"  format="ascii">-2 0.5 0  -2 0 0  -0.5 0 0  -0.4968561049466213 -0.05598223805165387 0  -0.4874639560909119 -0.1112604669781569 0  -0.4719416651541838 -0.1651395309775835 0  -0.4504844339512096 -0.216941869558779 0  -0.4233620996141421 -0.2660160382576682 0  -0.3909157412340148 -0.3117449009293669 0  -0.3535533905932738 -0.3535533905932737 0  -0.3117449009293669 -0.3909157412340148 0  -0.2660160382576683 -0.4233620996141421 0  -0.2169418695587791 -0.4504844339512095 0  -0.1651395309775836 -0.4719416651541837 0  -0.1112604669781573 -0.4874639560909118 0  -0.05598223805165402 -0.4968561049466213 0  -9.184850993605148e-17 -0.5 0  2 -0.5 0  2 0 0  0.5 0 0  0.4968561049466213 0.05598223805165393 0  0.4874639560909118 0.1112604669781572 0  0.4719416651541838 0.1651395309775835 0  0.4504844339512096 0.2169418695587791 0  0.4233620996141421 0.2660160382576683 0  0.3909157412340149 0.3117449009293667 0  0.3535533905932738 0.3535533905932737 0  0.3117449009293668 0.3909157412340149 0  0.2660160382576683 0.4233620996141421 0  0.2169418695587791 0.4504844339512096 0  0.1651395309775837 0.4719416651541837 0  0.1112604669781572 0.4874639560909118 0  0.05598223805165384 0.4968561049466213 0  3.061616997868383e-17 0.5 0  0.1398708344106534 0.05418624992807294 0  0.15 0 0  0.1398708344106534 -0.05418624992807295 0  0.1108513375830988 -0.1010543465469837 0  0.06686075336648065 -0.1342744937032594 0  0.01384025391949536 -0.1493601264442552 0  -0.04104944851081246 -0.1442738464759228 0  -0.09039519545688858 -0.1197025840920358 0  -0.1275325703594421 -0.07896482443160337 0  -0.1474459649525853 -0.02756242767248552 0  -0.1474459649525853 0.02756242767248555 0  -0.1275325703594421 0.07896482443160341 0  -0.09039519545688844 0.1197025840920359 0  -0.04104944851081243 0.1442738464759228 0  0.0138402539194953 0.1493601264442552 0  0.06686075336648074 0.1342744937032593 0  0.1108513375830989 0.1010543465469836 0  -1 0.5 0  1 -0.5 0  -1.25 0 0  -0.5 0.5 0  1.25 0 0  0.4999999999999999 -0.5 0  -1.5 0.5 0  1.5 -0.5 0  -0.875 0 0  0.875 0 0  -1.625 0 0  1.625 0 0  0.6875 -0.2500000000000001 0  -0.6875 0.25 0  -2 0.25 0  1.75 -0.5 0  0.2499999999999999 -0.5 0  -0.3583969912126916 0.25 0  0.3749999999999999 -0.25 0  -1.0625 0.21875 0  1.0625 -0.21875 0  -1.75 0.5 0  -1.25 0.5 0  -1.375 0.25 0  1.4375 -0.21875 0  2 -0.25 0  1.25 -0.5 0  1.7375 -0.2375 0  -1.7375 0.2375 0  0.75 -0.5 0  -0.75 0.5 0  -0.25 0.5 0  -0.1570377317087672 0.3153742794659282 0  0.1249999999999999 -0.3338777090152827 0  -0.8826650943396226 0.3263561320754717 0  0.8826650943396227 -0.3263561320754717 0  1.25 -0.1897321428571428 0  1.4375 0 0  -1.4375 0 0  1.0625 0 0  -1.0625 0 0  -0.6875 0 0  0.6875 0 0  1.8125 0 0  -1.8125 0 0  0.3263011380546194 -0.06940056902730968 0  -1.554017857142857 0.1790178571428572 0  0.08847100915780901 0.3109433440851622 0  -0.2412983234264066 -0.2156373655531345 0  -1.625 0.3744047619047619 0  1.625 -0.3744047619047619 0  0.2743272717766799 0.1698562554772697 0  -0.3279338175957848 0.06764246763930631 0  -1.863068181818182 0.3630681818181818 0  2 -0.375 0  1.875 -0.5 0  -0.05442366733490933 -0.3203147637646457 0  1.321986607142857 -0.3448660714285714 0  1.125 -0.5 0  -1.209821428571429 0.3236607142857143 0  -0.5229484956063458 0.1781011282952406 0  0.9067445847815293 -0.1625224987586892 0  -0.8335714777578845 0.1642411083184135 0  -1.237063437253354 0.1627182813733228 0  -0.4947697009489606 0.3378596801347012 0  0.53125 -0.171875 0  0.5156249999999999 -0.3359375 0  -2 0.125 0  1.873225308641975 -0.1497685185185185 0  0.2341337966231563 -0.1911191776024666 0  -0.625 0.5 0  1.587453076345555 -0.2288757784711196 0  1.8125 -0.3654761904761905 0  -0.3326862624810256 -0.08869875963335262 0  -0.375 0.5 0  1.174048204529175 -0.319244854540162 0  -1.067618031042359 0.3674567846760797 0  -0.96875 0.109375 0  1.481463366596639 -0.3565498074229692 0  1.023503306098383 -0.3576535124663073 0  -0.2265388519390893 0.1866542405407749 0  0.625 -0.5 0  -1.852445652173913 0.1432065217391304 0  -1.375 0.5 0  -1.479101577239454 0.3541992113802732 0  0.2708871299591885 -0.3541935649795943 0  1.520204106978579 -0.109375 0  0.78125 -0.1026731411563172 0  -0.3125 0.3785994323952442 0  0.3749999999999999 -0.5 0  1.141568346088435 -0.109375 0  1.358431653911565 -0.109375 0  1.668712727161379 -0.1246887081867154 0  -1.673050595238095 0.1226339285714286 0  -1.34375 0 0  -1.431523109243698 0.1313182773109244 0  -0.7546231943577876 0.3660317014105531 0  -0.6233296454587935 0.3645528204344609 0  0.7546231943577878 -0.3660317014105531 0  0.6537002726710706 -0.125 0  -0.6441338591766993 0.125 0  1.375 -0.5 0  -2 0.375 0  -1.875 0.5 0  1.625 -0.5 0  -1.625 0.5 0  0.875 -0.5 0  -0.875 0.5 0  0.1249999999999999 -0.5 0  -0.125 0.5 0  2 -0.125 0  -1.125 0.5 0  -1.354082022940739 0.375 0  -0.03500388138134332 0.2732363193989585 0  0.3955099577726473 -0.3752808566622692 0  0.3596026196703111 0.0631070919012526 0  -0.0625 0.394061918116807 0  0.6342080192637126 -0.3582597885274255 0  -1.123666900137815 0.109375 0  -1.744588744588745 0.3803841991341991 0  0.2210084381421171 0.2925777566973838 0  0.8072251313743133 -0.2315819627814412 0  -0.1814335426834733 -0.3282792760620681 0  -0.9356634513979559 0.2218154628239019 0  0.4183753556420685 -0.1414382112841371 0  -0.1238894550978499 -0.2292394949250368 0  0.96875 0 0  1.013652292192466 -0.1102204462032291 0  -0.4393328341626322 0.09834605222123384 0  1.882206434331873 -0.2686982850037661 0  0.1426699461850768 0.2146575767791519 0  -1.886304127069339 0.251758104550396 0  0.2495743011762567 0.06264742837969955 0  -0.78125 0 0  0.04042933102838756 -0.2590839715717854 0  -1.53125 0 0  -0.5823692714154002 0.2663576540687616 0  -0.2594008044921133 0.2871583817002197 0  -0.9375 0.4157678007976423 0  0.9696186653311423 -0.2675997292662616 0  -0.7942971416386473 0.2646257048857303 0  0.06249999999999992 -0.4169388545076413 0  0.1874999999999999 -0.4169388545076413 0  -1.562839467699977 0.2864000626355251 0  -0.1875 0.4157529178973974 0  -0.1223698320396133 0.2179970721626365 0  1.770639498024741 -0.1399156735731578 0  0.9367002721196375 -0.4157324987180338 0  -1.90625 0 0  -0.2298618769854927 -0.08904896555277285 0  0.1397131066802196 -0.232031643549068 0  -0.4375 0.420861596936145 0  -0.3483554784186823 -0.1925292675214375 0  0.59375 0 0  -1.327632151430252 0.1057660692693074 0  -0.9830051201906395 0.3115204496273563 0  1.90625 0 0  1.236354269160391 -0.3993990952861421 0  -1.1875 0.4214935578661845 0  0.5625 -0.4247705455161483 0  -0.7349377422908023 0.1635199768201956 0  -1.583328550170068 0.08705835459183674 0  -1.640104497493491 0.2259991665335075 0  -1.467109316827997 0.2210671404637805 0  0.5896070530325394 -0.2690578560650788 0  0.3266472067106532 -0.167734762534917 0  -0.59375 0 0  -0.546875 0.08448914438556519 0  1.71875 0 0  1.156078290691277 -0.2031315651260504 0  1.337704613095238 -0.2433035714285714 0  1.236312294597949 -0.09486607142857142 0  0.1642123379155914 0.3701207892454864 0  0.2345507206108115 -0.04384512844718241 0  -0.4048861533022036 -0.02273791864794379 0  0.03798857341016919 0.3979165301900267 0  -0.4006523628802168 0.334179001454817 0  -0.1135990210174155 -0.393340785880617 0  1.906775738056482 -0.3598876272511091 0  1.720393990929705 -0.4044642857142857 0  -1.71875 0 0  1.15625 0 0  0.78125 0 0  1.53125 0 0  -0.96875 0 0  1.34375 0 0  -1.15625 0 0  1.142828909845958 -0.4078056758504979 0  0.40697192225457 -0.01923608979840619 0  -1.767708120728825 0.08966855818957545 0  -0.6882384924227143 0.4308047125515967 0  -0.3636785153797087 0.1553944795036722 0  -0.2291274285977749 0.08616080495998404 0  -0.281012338688557 -0.01202669255906096 0  0.3108677056378212 0.2586754570559801 0  -1.151751953043632 0.196872287087452 0  -0.5625 0.4330368698813529 0  0.6875 -0.4328910527173583 0  1.405021000845949 -0.3057191080886871 0  0.546875 -0.08025568181818182 0  0.3713523302229579 0.1599284134935842 0  -1.12196127795563 0.2911449911382941 0  -1.276991293863022 0.2522534749828799 0  1.255195006158927 -0.2798057638555942 0  -0.8388532729558951 0.4114132763440825 0  0.8388532729558953 -0.4114132763440825 0  -0.4557763550657601 0.2486174768248819 0  0.2049883534781638 -0.2934473685517857 0  0.3226059585583683 -0.4273378498573185 0  -1.426982449282418 0.4270508114904024 0  1.397702183984896 -0.4056170514003312 0  0.05467855045156804 0.2285245978493705 0  -0.272823163096586 -0.3046204408381326 0  -0.02656096412551515 -0.4126877256833236 0  -1.807235369718798 0.2933328120993839 0  0.1906985117418444 0.1399478964461678 0  -1.688085622354259 0.3115694793217502 0  1.659329587961023 -0.2879395206246994 0  -1.5625 0.437202380952381 0  1.546313524296827 -0.4210926184041992 0  -1.813279560389256 0.4363923695021056 0  -1.926524548924358 0.4265245489243581 0  -0.1751061200004134 -0.1578066000831913 0  0.2891187728554643 -0.268298186700636 0  0.4721679687499999 -0.2490234375 0  0.7276683718449491 -0.1720688736051095 0  0.4744973194747868 -0.4152356216385488 0  0.9322020604693165 -0.07914563824612769 0  -1.275602471792197 0.4154857864535745 0  -0.828125 0.07552171441918698 0  1.3125 -0.5 0  -1.931646474339171 0.178059096704675 0  -0.7167268019830385 0.08016211756451477 0  1.060414578698922 -0.4368616551407768 0  -1.6875 0.5 0  1.9375 -0.5 0  1.739833210773432 -0.3220974693894793 0  -2 0.3125 0  -1.207440692409131 0.07848980221212992 0  -0.04055821595704934 -0.2377097412335854 0  0.1922531441870086 -0.1190381071624572 0  1.509237778147088 -0.2717758217431455 0  0.8901922386429052 -0.2437760747352658 0  -1.498530569603453 0.07867879855510211 0  0.9849923856958628 -0.1870513965806273 0  1.515605916195201 -0.1906351698786736 0  1.439317880445072 -0.08458133750179306 0  1.932491348856277 -0.2050969650933771 0  1.828075655121533 -0.08087981225769847 0  1
[...]
<PointData  Vectors="f_39"> 
<DataArray  type="Float64"  Name="f_39"  NumberOfComponents="3" format="ascii">-3.0590355481643141e+31 -1.3400455992858007e+32 0.0000000000000000e+00  4.1429728665789567e+30 -2.9082559016182295e+30 0.0000000000000000e+00  4.1389576638960494e+31 -3.0190508330742122e+31 0.0000000000000000e+00  2.0112231930096614e+31 -3.9640993141305768e+31 0.0000000000000000e+00  1.2157567062452334e+31 -3.2053617990576023e+31 0.0000000000000000e+00  1.0269183072907384e+31 -2.4232600789818439e+31 0.0000000000000000e+00  1.0963209021615292e+31 -2.0820963543641961e+31 0.0000000000000000e+00  1.2747286286036429e+31 -1.8204312493257798e+31 0.0000000000000000e+00  1.3206511081407602e+31 -1.6244715897390757e+31 0.0000000000000000e+00  1.4189108431654601e+31 -1.4842243095373765e+31 0.0000000000000000e+00  1.6364503044435182e+31 -1.1766902909622300e+31 0.0000000000000000e+00  1.6790304994757266e+31 -1.0490518380329355e+31 0.0000000000000000e+00  1.7908862497989866e+31 -8.6273892019964393e+30 0.0000000000000000e+00  1.8894612570022108e+31 -6.8782110714331237e+30 0.0000000000000000e+00  1.9612950305498009e+31 -5.5905947791503990e+30 0.0000000000000000e+00  2.1436048396294080e+31 -2.7119245598842502e+30 0.0000000000000000e+00  2.3517626436161535e+31 -1.8052735695975779e+30 0.0000000000000000e+00  4.1365147499298022e+31 5.2823645705054916e+25 0.0000000000000000e+00  4.1369639112633057e+31 -1.5957612632381109e+26 0.0000000000000000e+00  3.2608168989543163e+31 -3.5161090872749230e+31 0.0000000000000000e+00  1.8559071608595984e+31 -3.7267469799006517e+31 0.0000000000000000e+00  1.0877798625737348e+31 -3.0084589722897935e+31 0.0000000000000000e+00  9.7741406338305013e+30 -2.5525138323797303e+31 0.0000000000000000e+00  1.1076121473249072e+31 -2.1211477216490158e+31 0.0000000000000000e+00  1.1892631974714896e+31 -1.8259535215321946e+31 0.0000000000000000e+00  1.3869235861924657e+31 -1.5762894999988257e+31 0.0000000000000000e+00  1.4716192377914871e+31 -1.4266189969676141e+31 0.0000000000000000e+00  1.5701128462945022e+31 -1.2369255745941116e+31 0.0000000000000000e+00  1.6244285486519077e+31 -1.1024836033147752e+31 0.0000000000000000e+00  1.8171658918822374e+31 -8.3052720259437552e+30 0.0000000000000000e+00  1.8594734281120023e+31 -6.8171431502160548e+30 0.0000000000000000e+00  1.9961080931489710e+31 -4.9458813876165749e+30 0.0000000000000000e+00  2.0654136968201869e+31 -3.7655855217715311e+30 0.0000000000000000e+00  2.3228547602976329e+31 -1.5437439343396644e+30 0.0000000000000000e+00  1.8449323138037403e+31 -2.9961724993758512e+31 0.0000000000000000e+00  1.0259692258870001e+31 -2.3220366996674450e+31 0.0000000000000000e+00  8.7968784133351550e+30 -8.0821800604328845e+30 0.0000000000000000e+00  1.5579322855526206e+31 2.2854880789177606e+30 0.0000000000000000e+00  2.8008580096810907e+31 6.7814802302764987e+30 0.0000000000000000e+00  3.8183274661886890e+31 7.5820677869592655e+29 0.0000000000000000e+00  3.8614343604337727e+31 -1.6036673575471147e+31 0.0000000000000000e+00  3.2576157918919237e+31 -2.5385278351241932e+31 0.0000000000000000e+00  2.3762110790280315e+31 -2.9061672997967569e+31 0.0000000000000000e+00  1.2187794295439702e+31 -2.5271525937803610e+31 0.0000000000000000e+00  7.1815484241039567e+30 -1.6904568267434811e+31 0.0000000000000000e+00  1.2777807701254379e+31 -1.6295156462806799e+30 0.0000000000000000e+00  2.2206623426765426e+31 5.6162966798037704e+30 0.0000000000000000e+00  3.3541527192085182e+31 5.0477572813935364e+30 0.0000000000000000e+00  4.0095806397035511e+31 -9.3014804525472678e+30 0.0000000000000000e+00  3.9420994893185702e+31 -1.5076072381290910e+31 0.0000000000000000e+00  2.5713160843253305e+31 -3.0092754133994534e+31 0.0000000000000000e+00  4.0299301508824567e+31 -1.1116012434072680e+29 0.0000000000000000e+00  4.0914722180234756e+31 -9.8146507587949631e+28 0.0000000000000000e+00  3.9950309028326270e+31 -1.3257721156273194e+29 0.0000000000000000e+00  3.4590959783960570e+31 -7.5618490065741945e+29 0.0000000000000000e+00  4.1466312170700392e+31 -1.6954195182342011e+28 0.0000000000000000e+00  3.5378746896629141e+31 -8.0381877832114601e+29 0.0000000000000000e+00  4.4651101161380438e+31 -8.0149536205524827e+29 0.0000000000000000e+00  4.1347455221066617e+31 -3.4818682705016499e+27 0.0000000000000000e+00  4.1532296162545476e+31 -2.1243463791344280e+29 0.0000000000000000e+00  4.2418553126738276e+31 -2.3379838460907028e+29 0.0000000000000000e+00  3.3603007424932596e+31 -1.1620784733352067e+30 0.0000000000000000e+00  4.1376253506195431e+31 -1.1045905648372462e+27 0.0000000000000000e+00  4.0719511011206178e+31 -3.3097635636924832e+30 0.0000000000000000e+00  3.9980738839765459e+31 -2.7956049425100442e+30 0.0000000000000000e+00  6.5872670772848075e+30 -4.1291977234034169e+31 0.0000000000000000e+00  4.1362817239754834e+31 -3.2807996238112976e+26 0.0000000000000000e+00  2.9333570339811532e+31 -4.5288681242792624e+29 0.0000000000000000e+00  3.0578031866238462e+31 -6.8088670471069219e+30 0.0000000000000000e+00  3.1375585994902743e+31 -7.1584485199105480e+30 0.0000000000000000e+00  4.0587204167902461e+31 -5.1713056411557253e+29 0.0000000000000000e+00  4.1408126761543425e+31 -3.1030237229451710e+29 0.0000000000000000e+00  6.3940315882934124e+31 -3.6100743910936281e+30 0.0000000000000000e+00  4.1221542528774879e+31 -1.8908132484748581e+29 0.0000000000000000e+00  4.0552265125760256e+31 -1.6808315047012600e+30 0.0000000000000000e+00  4.1373855104184800e+31 -2.7016621402112458e+28 0.0000000000000000e+00  4.1366774125106534e+31 -3.7824318214000819e+26 0.0000000000000000e+00  4.1280040586861512e+31 -1.7110036211208923e+28 0.0000000000000000e+00  4.1366911915484329e+31 -4.4540565374836119e+27 0.0000000000000000e+00  3.6137169336967572e+31 -1.5431008326399290e+31 0.0000000000000000e+00  3.9378775089931346e+31 -2.8191305012591240e+29 0.0000000000000000e+00  3.8915965885982634e+31 -2.6722828062754087e+29 0.0000000000000000e+00  2.9229301442365044e+31 -5.9909735225125135e+29 0.0000000000000000e+00  2.7291646875323132e+31 -2.5924390911788687e+30 0.0000000000000000e+00  2.7408135768694178e+31 -2.5849976460957119e+30 0.0000000000000000e+00  4.0126286825877734e+31 -7.4360704594736198e+29 0.0000000000000000e+00  4.0896982425861927e+31 -7.6252218469095310e+29 0.0000000000000000e+00  4.1393101874723174e+31 -9.1314776933581706e+28 0.0000000000000000e+00  4.1394800671225568e+31 -5.3250566637746615e+27 0.0000000000000000e+00  3.8310347075220187e+31 -3.4408655689618598e+29 0.0000000000000000e+00  4.1677031934431312e+31 -5.2433173583183992e+28 0.0000000000000000e+00  4.0667429470683181e+31 -7.0667641658810465e+28 0.0000000000000000e+00  4.3981801580435616e+31 -8.1110441799530028e+29 0.0000000000000000e+00  4.5786088418175308e+31 -9.7553079285098800e+29 0.0000000000000000e+00  4.1370087121490816e+31 -3.0122232788258623e+26 0.0000000000000000e+00  2.1654917291547276e+31 -2.4373341733593505e+30 0.0000000000000000e+00  2.4128977809893192e+31 -1.7284615596368392e+31 0.0000000000000000e+00  3.8266232045459845e+31 -4.1116995834975043e+30 0.0000000000000000e+00  2.5493677023129545e+31 -9.6542279064385525e+30 0.0000000000000000e+00  2.0000776579849335e+31 -1.8409685775153619e+31 0.0000000000000000e+00  4.5746311008020407e+31 -6.6675633520063953e+30 0.0000000000000000e+00  4.1360683200492299e+31 -6.9323086916316062e+27 0.0000000000000000e+00  1.9037445919787418e+31 -2.1202662455681965e+31 0.0000000000000000e+00  2.4437001649672885e+31 -1.6753631293059126e+31 0.0000000000000000e+00  5.4112342608089332e+31 -4.9400988817188571e+31 0.0000000000000000e+00  4.1364903653066395e+31 -2.1240013067175883e+26 0.0000000000000000e+00  4.1364530517181288e+31 -9.5139675772210256e+25 0.0000000000000000e+00  2.6334146032108078e+31 -7.8587770545010055e+30 0.0000000000000000e+00  4.1334754482022576e+31 -4.6294854588361596e+28 0.0000000000000000e+00  4.1169066752160905e+31 -4.2401616825390820e+28 0.0000000000000000e+00  4.0775297508875871e+31 -6.4131358893755296e+29 0.0000000000000000e+00  3.9049480005039552e+31 -8.2693723496232042e+30 0.0000000000000000e+00  4.1812389145220088e+31 -7.5805060117543697e+29 0.0000000000000000e+00  4.1126418590775965e+31 -1.1576771809416342e+30 0.0000000000000000e+00  4.0296258421403064e+31 -7.1219952501226236e+29 0.0000000000000000e+00  3.5251992068478816e+31 -3.5973164754860087e+30 0.0000000000000000e+00  4.0390532057748164e+31 -8.8653366839814716e+30 0.0000000000000000e+00  3.5931253507973045e+31 -3.7128733698223129e+30 0.0000000000000000e+00  5.5138202449123190e+30 -1.5954601259151534e+31 0.0000000000000000e+00  4.1367750340513737e+31 -1.2729538304604009e+27 0.0000000000000000e+00  2.4641637659804832e+31 -5.6974925286782764e+30 0.0000000000000000e+00  3.7167290235372970e+31 -5.3111604217682621e+29 0.0000000000000000e+00  4.1368270393375804e+31 -1.0744963931863365e+28 0.0000000000000000e+00  4.1364010248162020e+31 -1.8931631897895551e+27 0.0000000000000000e+00  1.7863001028291666e+31 -2.3768459649254209e+31 0.0000000000000000e+00  3.1770545019741043e+31 -7.7652377176697365e+29 0.0000000000000000e+00  4.1294683992663971e+31 -1.3573969333743381e+29 0.0000000000000000e+00  4.0559102932127889e+31 -3.9870528161231286e+29 0.0000000000000000e+00  4.0894694438026809e+31 -4.3501079417581465e+29 0.0000000000000000e+00  4.1353145208508476e+31 -1.7048953061542304e+28 0.0000000000000000e+00  4.1134873815299262e+31 -2.9293875612908163e+29 0.0000000000000000e+00  2.3454091725669978e+31 -5.4959069112007414e+30 0.0000000000000000e+00  3.7795738253849347e+31 -5.8445782703492668e+29 0.0000000000000000e+00  1.9688672817998981e+31 -1.3959082723155123e+31 0.0000000000000000e+00  4.2240034681166904e+31 -2.7611310722904506e+29 0.0000000000000000e+00  4.2608997057812005e+31 -2.6043045399882528e+30 0.0000000000000000e+00  2.9343997476812797e+31 -3.4043347657016961e+30 0.0000000000000000e+00  4.1378822064607677e+31 -1.1134585044336924e+28 0.0000000000000000e+00  4.2860286892213371e+31 -1.3759204435133332e+30 0.0000000000000000e+00  2.9898845256386100e+31 -2.8582591078681970e+30 0.0000000000000000e+00  3.2155656470331957e+31 -5.7031719273721959e+29 0.0000000000000000e+00  4.1508741885054159e+31 -1.2173766492482743e+29 0.0000000000000000e+00  4.1404055140032391e+31 -3.0871743643429414e+28 0.0000000000000000e+00  4.1371202441148989e+31 -4.9554793303076750e+27 0.0000000000000000e+00  3.3148807809024911e+31 -6.4897015710058850e+30 0.0000000000000000e+00  3.9249603225177970e+31 -2.6387890657844256e+29 0.0000000000000000e+00  3.8941893946836762e+31 -1.6237183465805203e+30 0.0000000000000000e+00  3.9215849977854954e+31 -1.1678110615507429e+30 0.0000000000000000e+00  3.7653560120691755e+31 -2.2574679975796765e+30 0.0000000000000000e+00  3.9907993455499043e+31 -1.3584885314193515e+30 0.0000000000000000e+00  4.3397687043234875e+31 -4.1389702050911659e+30 0.0000000000000000e+00  4.3064893470972784e+31 -4.0007032687119402e+30 0.0000000000000000e+00  4.1321382001583754e+31 -1.0024023524966067e+28 0.0000000000000000e+00  2.0063240687339435e+31 -8.2651448594439784e+31 0.0000000000000000e+00  1.2040012664354986e+32 -4.1052911772966072e+31 0.0000000000000000e+00  4.1357288860170937e+31 -1.2509589938203785e+27 0.0000000000000000e+00  4.9192979015667178e+31 -1.6909243846732834e+30 0.0000000000000000e+00  4.0470978977390517e+31 -2.0561076359886938e+29 0.0000000000000000e+00  3.9823929582528848e+31 -1.4398238952814548e+29 0.0000000000000000e+00  2.6818378962354221e+31 -4.6653222673576695e+29 0.0000000000000000e+00  2.6589711763190274e+31 -6.6678517188886615e+29 0.0000000000000000e+00  4.1367513209754159e+31 -1.1968395860150368e+26 0.0000000000000000e+00  4.0759403138409335e+31 -1.1565238970203180e+29 0.0000000000000000e+00  4.1615753419563842e+31 -1.0731347755427640e+30 0.0000000000000000e+00  2.8984341486957335e+31 -3.4923303583678269e+30 0.0000000000000000e+00  3.2621170957931081e+31 -3.1336996442018322e+30 0.0000000000000000e+00  1.8847995335782867e+31 -2.5045017173766799e+31 0.0000000000000000e+00  2.6173032504747643e+31 -2.6870864632830050e+30 0.0000000000000000e+00  3.8640899579306436e+31 -2.4288379437223123e+30 0.0000000000000000e+00  4.0487171919118536e+31 -3.4920509648070962e+29 0.0000000000000000e+00  5.2613510141142470e+31 -1.6113283278331868e+31 0.0000000000000000e+00  2.0581564499542486e+31 -1.4281964403760554e+31 0.0000000000000000e+00  4.1448744225392498e+31 -1.5080417485822445e+30 0.0000000000000000e+00  2.0932929888896127e+31 -1.1947663524392053e+31 0.0000000000000000e+00  4.0669627415424792e+31 -7.5871703533080827e+29 0.0000000000000000e+00  3.3488761594388802e+31 -1.4047160497782456e+31 0.0000000000000000e+00  2.6864367254952011e+31 -1.5258133125450241e+31 0.0000000000000000e+00  4.2016838242741702e+31 -1.1897856233834835e+29 0.0000000000000000e+00  4.1692514758808507e+31 -2.7554863298998484e+29 0.0000000000000000e+00  3.5249809015318377e+31 -1.7011376796440892e+31 0.0000000000000000e+00  4.1366412290486832e+31 -1.5820924082310845e+27 0.0000000000000000e+00  2.7075333515613371e+31 -1.7203225650383306e+31 0.0000000000000000e+00  2.2591402397462392e+31 -3.2041445588000908e+31 0.0000000000000000e+00  1.7791006405250708e+31 -2.3857178103035737e+31 0.0000000000000000e+00  4.2454109292930117e+31 -3.5597027308366615e+29 0.0000000000000000e+00  2.9811898666766139e+31 -3.0678468136934118e+30 0.0000000000000000e+00  3.6432086810656525e+31 -7.4734660435247728e+29 0.0000000000000000e+00  3.8102728207197440e+31 -4.6562133333010741e+30 0.0000000000000000e+00  2.8083587966026740e+31 -4.4720157156125097e+30 0.0000000000000000e+00  4.0168394239708742e+31 -3.1700500066168475e+29 0.0000000000000000e+00  4.1283593689793558e+31 -5.5348538826324247e+29 0.0000000000000000e+00  4.0325583615352696e+31 -1.5426489453348729e+30 0.0000000000000000e+00  2.5644025213822921e+31 -2.3431543521527314e+30 0.0000000000000000e+00  2.8195129329417362e+31 -1.4059611808257279e+30 0.0000000000000000e+00  4.1460248103452451e+31 -5.3018529484439713e+30 0.0000000000000000e+00  2.7862674255389714e+31 -1.5441810723509826e+30 0.0000000000000000e+00  2.5669701794519110e+31 -1.5141498368202191e+29 0.0000000000000000e+00  4.1368733091044774e+31 -2.6840321521914477e+27 0.0000000000000000e+00  4.0759980847776952e+31 -2.8714265297554392e+29 0.0000000000000000e+00  1.2447902181131602e+31 -3.1558535539863734e+30 0.0000000000000000e+00  1.8587357664941001e+31 -2.4081597221107515e+31 0.0000000000000000e+00  2.6762827682450169e+31 -1.2443002382098136e+30 0.0000000000000000e+00  3.3527410648805685e+31 -1.8945473309431079e+30 0.0000000000000000e+00  1.5698808683367671e+31 -2.0911219221240380e+31 0.0000000000000000e+00  5.1644451841587284e+31 -4.4640868838118663e+30 0.0000000000000000e+00  3.9659595078896274e+31 -7.9961243582369629e+29 0.0000000000000000e+00  4.0427302036468979e+31 -5.6963162337704811e+29 0.0000000000000000e+00  4.1367966680640677e+31 -2.4867654999959766e+26 0.0000000000000000e+00  4.1272861509955941e+31 -6.7248639512699529e+28 0.0000000000000000e+00  4.0917588079639341e+31 -3.0972600614573247e+29 0.0000000000000000e+00  3.6603230573519191e+31 -1.6708288452059482e+30 0.0000000000000000e+00  4.1501761911478916e+31 -2.2948600215744575e+30 0.0000000000000000e+00  3.5772992061825638e+31 -2.8447285204058564e+30 0.0000000000000000e+00  3.8228055539385266e+31 -8.3101024100514816e+30 0.0000000000000000e+00  3.9766707514382198e+31 -2.8355781140836915e+30 0.0000000000000000e+00  3.8841556674619456e+31 -4.7532677621376469e+30 0.0000000000000000e+00  2.7963500472098541e+31 -1.0942165494802325e+31 0.0000000000000000e+00  4.9545559491981847e+31 -3.8386770539397162e+30 0.0000000000000000e+00  4.6777234147637751e+31 -9.9044753937025955e+30 0.0000000000000000e+00  4.1371865613871765e+31 -1.0629844075704436e+27 0.0000000000000000e+00  4.1414933543546511e+31 -1.7275585449267931e+29 0.0000000000000000e+00  4.1366116478517051e+31 -5.4110248415909120e+28 0.0000000000000000e+00  4.1448561500203990e+31 -6.1370245179847666e+28 0.0000000000000000e+00  2.0982891380304804e+31 -9.8096439245451502e+30 0.0000000000000000e+00  1.6270273261911671e+31 -1.4263445286495087e+31 0.0000000000000000e+00  2.4022675076105549e+31 -2.9539977234375347e+31 0.0000000000000000e+00  2.4148259640200407e+31 -4.4546855589912709e+30 0.0000000000000000e+00  3.2460297512996936e+31 -4.2632347753042492e+30 0.0000000000000000e+00  2.1765056345216011e+31 -7.3550007133558887e+30 0.0000000000000000e+00  4.1365511436843918e+31 -6.4984155311565387e+26 0.0000000000000000e+00  4.1362520006036985e+31 -2.5208411184189409e+27 0.0000000000000000e+00  2.7697074267888893e+31 -1.7118307819708177e+30 0.0000000000000000e+00  4.1537022981531879e+31 -2.7091517951305320e+28 0.0000000000000000e+00  4.3272594079989909e+31 -4.7811355931089704e+29 0.0000000000000000e+00  4.1382833321896359e+31 -2.2804867904595278e+27 0.0000000000000000e+00  4.0986045429725303e+31 -9.0254766018828355e+28 0.0000000000000000e+00  4.1421120226971924e+31 -8.7596975283043660e+27 0.0000000000000000e+00  4.0338552319969668e+31 -9.1385324425053492e+28 0.0000000000000000e+00  4.1230240048587720e+31 -9.7567592480711617e+28 0.0000000000000000e+00  2.9980290714787924e+31 -2.6050051790837063e+31 0.0000000000000000e+00  2.6713637436325176e+31 -7.2987847741916173e+30 0.0000000000000000e+00  3.8232179496985507e+31 -8.0282538558447575e+29 0.0000000000000000e+00  2.9716930283341252e+31 -1.1611222785159179e+31 0.0000000000000000e+00  1.7240744783182897e+31 -1.0505629416988480e+31 0.0000000000000000e+00  1.8469783775577335e+31 -2.1624270430936461e+31 0.0000000000000000e+00  1.5969419146320175e+31 -1.6954031157012799e+31 0.0000000000000000e+00  4.0500057735773330e+31 -5.6303183744097116e+29 0.0000000000000000e+00  3.6196783487560499e+31 -1.4569010260872563e+30 0.0000000000000000e+00  3.9025172140602002e+31 -9.5182199299569016e+29 0.0000000000000000e+00  4.1350762080972292e+31 -3.7090813911684786e+28 0.0000000000000000e+00  4.5943454407702437e+31 -1.3439132904879410e+31 0.0000000000000000e+00  1.5266582690431385e+31 -2.2875054044172737e+31 0.0000000000000000e+00  4.0604470960525261e+31 -5.2738593025293406e+29 0.0000000000000000e+00  4.0569705901040315e+31 -9.9055047362223287e+29 0.0000000000000000e+00  4.1347749860662963e+31 -8.9569639302447428e+28 0.0000000000000000e+00  3.9648797286609226e+31 -6.0577654083496159e+29 0.0000000000000000e+00  4.0376367503998318e+31 -5.9229720822541079e+29 0.0000000000000000e+00  3.4403161178909499e+31 -7.4562507594352061e+30 0.0000000000000000e+00  2.7619511482512226e+31 -3.5403030618722436e+30 0.0000000000000000e+00  3.0763082641556624e+31 -1.9550555761732548e+30 0.0000000000000000e+00  4.2664912878662666e+31 -1.0280662783820015e+30 0.0000000000000000e+00  4.1336164315409123e+31 -2.0954749162650445e+28 0.0000000000000000e+00  3.2538387971382031e+31 -1.0767750634312190e+31 0.0000000000000000e+00  1.7488101973219372e+31 -1.4842499680448857e+31 0.0000000000000000e+00  2.4151981521802624e+31 -4.3659148450409274e+30 0.0000000000000000e+00  3.8741079354782387e+31 -2.5024442444272865e+31 0.0000000000000000e+00  2.3833722228509727e+31 -2.3638570082826424e+31 0.0000000000000000e+00  4.2683848883491667e+31 -1.1993110559630300e+31 0.0000000000000000e+00  4.1364543718373800e+31 -6.5441507033223717e+27 0.0000000000000000e+00  4.5708039499603559e+31 -2.4693617262538219e+30 0.0000000000000000e+00  4.1353594545722680e+31 -7.9359718439880567e+27 0.0000000000000000e+00  7.0555287191061308e+31 -2.0565519205603766e+31 0.0000000000000000e+00  7.1032862476263852e+31 -9.8105407103010073e+31 0.0000000000000000e+00  2.4426580162474831e+31 -2.2945997585113925e+31 0.0000000000000000e+00  2.8624825667158969e+31 -5.1295019299491708e+30 0.0000000000000000e+00  3.5443105896720118e+31 -7.2609410352179453e+30 0.0000000000000000e+00  4.2195646700560946e+31 -2.8093533865729824e+30 0.0000000000000000e+00  3.4766172691456667e+31 -2.1863706371721674e+30 0.0000000000000000e+00  4.2058172739743387e+31 -3.5499613829858139e+29 0.0000000000000000e+00  4.1325473231166164e+31 -4.9698665540122010e+29 0.0000000000000000e+00  4.166516702477521