<?xml version="1.0"?>
<VTKFile type="UnstructuredGrid"  version="0.1"  >
<UnstructuredGrid>
<Piece  NumberOfPoints="1981" NumberOfCells="3668">
<Points>
<DataArray  type="Float64"  NumberOfComponents="3"  format="ascii">-2 0.5 0  -2 0 0  -0.5 0 0  -0.4968561049466213 -0.05598223805165387 0  -0.4874639560909119 -0.1112604669781569 0  -0.4719416651541838 -0.1651395309775835 0  -0.4504844339512096 -0.216941869558779 0  -0.4233620996141421 -0.2660160382576682 0  -0.3909157412340148 -0.3117449009293669 0  -0.3535533905932738 -0.3535533905932737 0  -0.3117449009293669 -0.3909157412340148 0  -0.2660160382576683 -0.4233620996141421 0  -0.2169418695587791 -0.4504844339512095 0  -0.1651395309775836 -0.4719416651541837 0  -0.1112604669781573 -0.4874639560909118 0  -0.05598223805165402 -0.4968561049466213 0  -9.184850993605148e-17 -0.5 0  2 -0.5 0  2 0 0  0.5 0 0  0.4968561049466213 0.05598223805165393 0  0.4874639560909118 0.1112604669781572 0  0.4719416651541838 0.1651395309775835 0  0.4504844339512096 0.2169418695587791 0  0.4233620996141421 0.2660160382576683 0  0.3909157412340149 0.3117449009293667 0  0.3535533905932738 0.3535533905932737 0  0.3117449009293668 0.3909157412340149 0  0.2660160382576683 0.4233620996141421 0  0.2169418695587791 0.4504844339512096 0  0.1651395309775837 0.4719416651541837 0  0.1112604669781572 0.4874639560909118 0  0.05598223805165384 0.4968561049466213 0  3.061616997868383e-17 0.5 0  0.1398708344106534 0.05418624992807294 0  0.15 0 0  0.1398708344106534 -0.05418624992807295 0  0.1108513375830988 -0.1010543465469837 0  0.06686075336648065 -0.1342744937032594 0  0.01384025391949536 -0.1493601264442552 0  -0.04104944851081246 -0.1442738464759228 0  -0.09039519545688858 -0.1197025840920358 0  -0.1275325703594421 -0.07896482443160337 0  -0.1474459649525853 -0.02756242767248552 0  -0.1474459649525853 0.02756242767248555 0  -0.1275325703594421 0.07896482443160341 0  -0.09039519545688844 0.1197025840920359 0  -0.04104944851081243 0.1442738464759228 0  0.0138402539194953 0.1493601264442552 0  0.06686075336648074 0.1342744937032593 0  0.1108513375830989 0.1010543465469836 0  -1 0.5 0  1 -0.5 0  -1.25 0 0  -0.5 0.5 0  1.25 0 0  0.4999999999999999 -0.5 0  -1.5 0.5 0  1.5 -0.5 0  -0.875 0 0  0.875 0 0  -1.625 0 0  1.625 0 0  0.6875 -0.2500000000000001 0  -0.6875 0.25 0  -2 0.25 0  1.75 -0.5 0  0.2499999999999999 -0.5 0  -0.3583969912126916 0.25 0  0.3749999999999999 -0.25 0  -1.0625 0.21875 0  1.0625 -0.21875 0  -1.75 0.5 0  -1.25 0.5 0  -1.375 0.25 0  1.4375 -0.21875 0  2 -0.25 0  1.25 -0.5 0  1.7375 -0.2375 0  -1.7375 0.2375 0  0.75 -0.5 0  -0.75 0.5 0  -0.25 0.5 0  -0.1570377317087672 0.3153742794659282 0  0.1249999999999999 -0.3338777090152827 0  -0.8826650943396226 0.3263561320754717 0  0.8826650943396227 -0.3263561320754717 0  1.25 -0.1897321428571428 0  1.4375 0 0  -1.4375 0 0  1.0625 0 0  -1.0625 0 0  -0.6875 0 0  0.6875 0 0  1.8125 0 0  -1.8125 0 0  0.3263011380546194 -0.06940056902730968 0  -1.554017857142857 0.1790178571428572 0  0.08847100915780901 0.3109433440851622 0  -0.2412983234264066 -0.2156373655531345 0  -1.625 0.3744047619047619 0  1.625 -0.3744047619047619 0  0.2743272717766799 0.1698562554772697 0  -0.3279338175957848 0.06764246763930631 0  -1.863068181818182 0.3630681818181818 0  2 -0.375 0  1.875 -0.5 0  -0.05442366733490933 -0.3203147637646457 0  1.321986607142857 -0.3448660714285714 0  1.125 -0.5 0  -1.209821428571429 0.3236607142857143 0  -0.5229484956063458 0.1781011282952406 0  0.9067445847815293 -0.1625224987586892 0  -0.8335714777578845 0.1642411083184135 0  -1.237063437253354 0.1627182813733228 0  -0.4947697009489606 0.3378596801347012 0  0.53125 -0.171875 0  0.5156249999999999 -0.3359375 0  -2 0.125 0  1.873225308641975 -0.1497685185185185 0  0.2341337966231563 -0.1911191776024666 0  -0.625 0.5 0  1.587453076345555 -0.2288757784711196 0  1.8125 -0.3654761904761905 0  -0.3326862624810256 -0.08869875963335262 0  -0.375 0.5 0  1.174048204529175 -0.319244854540162 0  -1.067618031042359 0.3674567846760797 0  -0.96875 0.109375 0  1.481463366596639 -0.3565498074229692 0  1.023503306098383 -0.3576535124663073 0  -0.2265388519390893 0.1866542405407749 0  0.625 -0.5 0  -1.852445652173913 0.1432065217391304 0  -1.375 0.5 0  -1.479101577239454 0.3541992113802732 0  0.2708871299591885 -0.3541935649795943 0  1.520204106978579 -0.109375 0  0.78125 -0.1026731411563172 0  -0.3125 0.3785994323952442 0  0.3749999999999999 -0.5 0  1.141568346088435 -0.109375 0  1.358431653911565 -0.109375 0  1.668712727161379 -0.1246887081867154 0  -1.673050595238095 0.1226339285714286 0  -1.34375 0 0  -1.431523109243698 0.1313182773109244 0  -0.7546231943577876 0.3660317014105531 0  -0.6233296454587935 0.3645528204344609 0  0.7546231943577878 -0.3660317014105531 0  0.6537002726710706 -0.125 0  -0.6441338591766993 0.125 0  1.375 -0.5 0  -2 0.375 0  -1.875 0.5 0  1.625 -0.5 0  -1.625 0.5 0  0.875 -0.5 0  -0.875 0.5 0  0.1249999999999999 -0.5 0  -0.125 0.5 0  2 -0.125 0  -1.125 0.5 0  -1.354082022940739 0.375 0  -0.03500388138134332 0.2732363193989585 0  0.3955099577726473 -0.3752808566622692 0  0.3596026196703111 0.0631070919012526 0  -0.0625 0.394061918116807 0  0.6342080192637126 -0.3582597885274255 0  -1.123666900137815 0.109375 0  -1.744588744588745 0.3803841991341991 0  0.2210084381421171 0.2925777566973838 0  0.8072251313743133 -0.2315819627814412 0  -0.1814335426834733 -0.3282792760620681 0  -0.9356634513979559 0.2218154628239019 0  0.4183753556420685 -0.1414382112841371 0  -0.1238894550978499 -0.2292394949250368 0  0.96875 0 0  1.013652292192466 -0.1102204462032291 0  -0.4393328341626322 0.09834605222123384 0  1.882206434331873 -0.2686982850037661 0  0.1426699461850768 0.2146575767791519 0  -1.886304127069339 0.251758104550396 0  0.2495743011762567 0.06264742837969955 0  -0.78125 0 0  0.04042933102838756 -0.2590839715717854 0  -1.53125 0 0  -0.5823692714154002 0.2663576540687616 0  -0.2594008044921133 0.2871583817002197 0  -0.9375 0.4157678007976423 0  0.9696186653311423 -0.2675997292662616 0  -0.7942971416386473 0.2646257048857303 0  0.06249999999999992 -0.4169388545076413 0  0.1874999999999999 -0.4169388545076413 0  -1.562839467699977 0.2864000626355251 0  -0.1875 0.4157529178973974 0  -0.1223698320396133 0.2179970721626365 0  1.770639498024741 -0.1399156735731578 0  0.9367002721196375 -0.4157324987180338 0  -1.90625 0 0  -0.2298618769854927 -0.08904896555277285 0  0.1397131066802196 -0.232031643549068 0  -0.4375 0.420861596936145 0  -0.3483554784186823 -0.1925292675214375 0  0.59375 0 0  -1.327632151430252 0.1057660692693074 0  -0.9830051201906395 0.3115204496273563 0  1.90625 0 0  1.236354269160391 -0.3993990952861421 0  -1.1875 0.4214935578661845 0  0.5625 -0.4247705455161483 0  -0.7349377422908023 0.1635199768201956 0  -1.583328550170068 0.08705835459183674 0  -1.640104497493491 0.2259991665335075 0  -1.467109316827997 0.2210671404637805 0  0.5896070530325394 -0.2690578560650788 0  0.3266472067106532 -0.167734762534917 0  -0.59375 0 0  -0.546875 0.08448914438556519 0  1.71875 0 0  1.156078290691277 -0.2031315651260504 0  1.337704613095238 -0.2433035714285714 0  1.236312294597949 -0.09486607142857142 0  0.1642123379155914 0.3701207892454864 0  0.2345507206108115 -0.04384512844718241 0  -0.4048861533022036 -0.02273791864794379 0  0.03798857341016919 0.3979165301900267 0  -0.4006523628802168 0.334179001454817 0  -0.1135990210174155 -0.393340785880617 0  1.906775738056482 -0.3598876272511091 0  1.720393990929705 -0.4044642857142857 0  -1.71875 0 0  1.15625 0 0  0.78125 0 0  1.53125 0 0  -0.96875 0 0  1.34375 0 0  -1.15625 0 0  1.142828909845958 -0.4078056758504979 0  0.40697192225457 -0.01923608979840619 0  -1.767708120728825 0.08966855818957545 0  -0.6882384924227143 0.4308047125515967 0  -0.3636785153797087 0.1553944795036722 0  -0.2291274285977749 0.08616080495998404 0  -0.281012338688557 -0.01202669255906096 0  0.3108677056378212 0.2586754570559801 0  -1.151751953043632 0.196872287087452 0  -0.5625 0.4330368698813529 0  0.6875 -0.4328910527173583 0  1.405021000845949 -0.3057191080886871 0  0.546875 -0.08025568181818182 0  0.3713523302229579 0.1599284134935842 0  -1.12196127795563 0.2911449911382941 0  -1.276991293863022 0.2522534749828799 0  1.255195006158927 -0.2798057638555942 0  -0.8388532729558951 0.4114132763440825 0  0.8388532729558953 -0.4114132763440825 0  -0.4557763550657601 0.2486174768248819 0  0.2049883534781638 -0.2934473685517857 0  0.3226059585583683 -0.4273378498573185 0  -1.426982449282418 0.4270508114904024 0  1.397702183984896 -0.4056170514003312 0  0.05467855045156804 0.2285245978493705 0  -0.272823163096586 -0.3046204408381326 0  -0.02656096412551515 -0.4126877256833236 0  -1.807235369718798 0.2933328120993839 0  0.1906985117418444 0.1399478964461678 0  -1.688085622354259 0.3115694793217502 0  1.659329587961023 -0.2879395206246994 0  -1.5625 0.437202380952381 0  1.546313524296827 -0.4210926184041992 0  -1.813279560389256 0.4363923695021056 0  -1.926524548924358 0.4265245489243581 0  -0.1751061200004134 -0.1578066000831913 0  0.2891187728554643 -0.268298186700636 0  0.4721679687499999 -0.2490234375 0  0.7276683718449491 -0.1720688736051095 0  0.4744973194747868 -0.4152356216385488 0  0.9322020604693165 -0.07914563824612769 0  -1.275602471792197 0.4154857864535745 0  -0.828125 0.07552171441918698 0  1.3125 -0.5 0  -1.931646474339171 0.178059096704675 0  -0.7167268019830385 0.08016211756451477 0  1.060414578698922 -0.4368616551407768 0  -1.6875 0.5 0  1.9375 -0.5 0  1.739833210773432 -0.3220974693894793 0  -2 0.3125 0  -1.207440692409131 0.07848980221212992 0  -0.04055821595704934 -0.2377097412335854 0  0.1922531441870086 -0.1190381071624572 0  1.509237778147088 -0.2717758217431455 0  0.8901922386429052 -0.2437760747352658 0  -1.498530569603453 0.07867879855510211 0  0.9849923856958628 -0.1870513965806273 0  1.515605916195201 -0.1906351698786736 0  1.439317880445072 -0.08458133750179306 0  1.932491348856277 -0.2050969650933771 0  1.828075655121533 -0.08087981225769847 0  1
[...]
<PointData  Vectors="f_39"> 
<DataArray  type="Float64"  Name="f_39"  NumberOfComponents="3" format="ascii">2.4235436782854485e+01 -1.1586074506398636e+00 0.0000000000000000e+00  2.1713537648801165e-01 1.1320151573061430e-02 0.0000000000000000e+00  1.0720130466265854e+01 -3.8919417701936094e+00 0.0000000000000000e+00  1.0862616214306634e+01 -4.6014677693360611e+00 0.0000000000000000e+00  1.0806649126769418e+01 -5.4495592557988690e+00 0.0000000000000000e+00  8.5924306206361578e+00 -6.7396652058760216e+00 0.0000000000000000e+00  7.4657881684217493e+00 -6.3504355704853426e+00 0.0000000000000000e+00  6.7355373743422318e+00 -5.3796949041287805e+00 0.0000000000000000e+00  6.3683272706183018e+00 -4.8056199041064707e+00 0.0000000000000000e+00  6.2263825294287587e+00 -4.4529777461378970e+00 0.0000000000000000e+00  6.3117894953873313e+00 -3.6672046926785122e+00 0.0000000000000000e+00  6.3143594748685530e+00 -3.4485681927175849e+00 0.0000000000000000e+00  6.4049627940649128e+00 -3.2067807301863063e+00 0.0000000000000000e+00  6.4797143274929869e+00 -2.9752567244834944e+00 0.0000000000000000e+00  6.5586140589701927e+00 -2.8084350947418906e+00 0.0000000000000000e+00  6.8489470071969887e+00 -2.4668141190158890e+00 0.0000000000000000e+00  7.0836118564028423e+00 -2.4350985812911552e+00 0.0000000000000000e+00  1.1968549389799653e+01 5.4236006686794754e-05 0.0000000000000000e+00  1.1984413403427050e+01 8.5175564740869408e-05 0.0000000000000000e+00  1.0711140522077445e+01 -4.3445581731237359e+00 0.0000000000000000e+00  1.0661236862601966e+01 -5.3286427667834699e+00 0.0000000000000000e+00  9.9493878709194838e+00 -6.0647266743312986e+00 0.0000000000000000e+00  9.1246336477024901e+00 -6.2657264819172198e+00 0.0000000000000000e+00  7.5378955293087104e+00 -6.3383550855996393e+00 0.0000000000000000e+00  6.5512568955751833e+00 -5.5200321888649784e+00 0.0000000000000000e+00  6.2520246441932290e+00 -4.7540401713827860e+00 0.0000000000000000e+00  6.2385612936344845e+00 -4.4122250913993124e+00 0.0000000000000000e+00  6.1018377560791839e+00 -3.9374429435835152e+00 0.0000000000000000e+00  6.0252850746511717e+00 -3.6773954164017026e+00 0.0000000000000000e+00  6.1379239903309717e+00 -3.1421967746032169e+00 0.0000000000000000e+00  6.1561194377437811e+00 -2.8834762880136382e+00 0.0000000000000000e+00  6.3622522201919365e+00 -2.5868079198666667e+00 0.0000000000000000e+00  6.4918209082915803e+00 -2.4098248928398380e+00 0.0000000000000000e+00  6.9553023830920173e+00 -2.1823261980469479e+00 0.0000000000000000e+00  8.9525427568774365e+00 -2.0355469844658884e+00 0.0000000000000000e+00  1.0226734493602248e+01 -2.8354563375944428e+00 0.0000000000000000e+00  1.0280093687498177e+01 -4.3121005241432417e+00 0.0000000000000000e+00  9.3103373034757198e+00 -5.0222161659775253e+00 0.0000000000000000e+00  7.8458988016924618e+00 -4.8691803830355536e+00 0.0000000000000000e+00  7.0384379948127869e+00 -4.0221486939628663e+00 0.0000000000000000e+00  6.6663881367575790e+00 -3.2282791718431469e+00 0.0000000000000000e+00  7.0769512534565884e+00 -2.6254000920972675e+00 0.0000000000000000e+00  7.9078472948845846e+00 -2.2930957484505767e+00 0.0000000000000000e+00  9.3892250831381823e+00 -2.4932717739753896e+00 0.0000000000000000e+00  1.0135709291477818e+01 -3.1659680807939186e+00 0.0000000000000000e+00  9.5825060295050211e+00 -4.3027601951269263e+00 0.0000000000000000e+00  8.5815376131561294e+00 -4.7423686138695347e+00 0.0000000000000000e+00  7.2363979717897378e+00 -4.6297247740820584e+00 0.0000000000000000e+00  6.5468664066266333e+00 -3.5464695066311998e+00 0.0000000000000000e+00  6.4505510322975610e+00 -3.1357125609130998e+00 0.0000000000000000e+00  7.9258519049287450e+00 -1.9213867526753223e+00 0.0000000000000000e+00  1.1892038477420668e+01 -3.9726540057141113e-01 0.0000000000000000e+00  1.1497262391062014e+01 -3.3847695275734468e-01 0.0000000000000000e+00  1.1743032671314035e+01 -4.2583794588721668e-01 0.0000000000000000e+00  9.9312334740127124e+00 -1.4510242011078618e+00 0.0000000000000000e+00  1.2148831303796319e+01 -1.0514256302097746e-01 0.0000000000000000e+00  9.8576668541784152e+00 -1.4994303800056574e+00 0.0000000000000000e+00  1.4160429144470942e+01 -1.2661153962302345e+00 0.0000000000000000e+00  1.1920883294211876e+01 -2.5079954462923860e-02 0.0000000000000000e+00  1.2981686189927318e+01 -9.7912632952837864e-01 0.0000000000000000e+00  1.2817018109065234e+01 -8.8186815542118457e-01 0.0000000000000000e+00  8.8590658917318130e+00 -2.6671018743506165e+00 0.0000000000000000e+00  1.2002218662661157e+01 -1.1256659281052071e-02 0.0000000000000000e+00  1.1388565107970511e+01 -1.8792759923858358e+00 0.0000000000000000e+00  1.1470595386477596e+01 -1.8316276404447553e+00 0.0000000000000000e+00  1.3605345412599279e+01 -7.6569719888763588e-01 0.0000000000000000e+00  1.1957434161360981e+01 -2.2355346272275728e-03 0.0000000000000000e+00  8.7397670683305027e+00 -1.6834596666735084e+00 0.0000000000000000e+00  9.6254933491512471e+00 -2.6840396265327211e+00 0.0000000000000000e+00  9.8052460854837875e+00 -2.8275185559637208e+00 0.0000000000000000e+00  1.2166724902179103e+01 -7.3116302401748157e-01 0.0000000000000000e+00  1.2001434106859088e+01 -4.6124494779876546e-01 0.0000000000000000e+00  1.7547303053995613e+01 -3.4215989155502688e+00 0.0000000000000000e+00  1.2626791422590635e+01 -4.4319345435726903e-01 0.0000000000000000e+00  1.2185306878430405e+01 -1.3671920214893984e+00 0.0000000000000000e+00  1.1988554036304397e+01 -7.3888446154158058e-02 0.0000000000000000e+00  1.1975120557828717e+01 -3.1614176643320546e-04 0.0000000000000000e+00  1.1810442303800267e+01 -9.9521180727001640e-02 0.0000000000000000e+00  1.1974694196652203e+01 -1.5913639575018446e-02 0.0000000000000000e+00  1.2268405287037963e+01 -6.2671170055084566e+00 0.0000000000000000e+00  1.0825312524217480e+01 -8.1836572476593017e-01 0.0000000000000000e+00  1.1025394670856505e+01 -7.0001748830727195e-01 0.0000000000000000e+00  8.5774005241975360e+00 -1.5563688071363844e+00 0.0000000000000000e+00  8.3249022432852957e+00 -2.7617354200080251e+00 0.0000000000000000e+00  8.1225034613828075e+00 -2.9357975333360788e+00 0.0000000000000000e+00  1.1768584603464188e+01 -8.6794132553600067e-01 0.0000000000000000e+00  1.1593909089426274e+01 -8.1970624820757720e-01 0.0000000000000000e+00  1.2012136722501856e+01 -1.9008350768229706e-01 0.0000000000000000e+00  1.2046393578298298e+01 -3.6175067852341668e-02 0.0000000000000000e+00  1.0796851607827554e+01 -9.1533037973147013e-01 0.0000000000000000e+00  1.2391916506355173e+01 -2.5955622546033386e-01 0.0000000000000000e+00  1.2390637297950779e+01 -4.0452883118665645e-01 0.0000000000000000e+00  1.3593265293882373e+01 -2.8042678322554728e+00 0.0000000000000000e+00  1.3180989812980222e+01 -2.8099259115441821e+00 0.0000000000000000e+00  1.1986795965351396e+01 -3.4295551281695435e-03 0.0000000000000000e+00  6.3700833631635829e+00 -6.8428935149056009e+00 0.0000000000000000e+00  9.8529564634585238e+00 -3.7467096486705795e+00 0.0000000000000000e+00  1.1392645648608960e+01 -2.7012742789131070e+00 0.0000000000000000e+00  6.8376251318888697e+00 -3.1299467139569761e+00 0.0000000000000000e+00  7.3589734843969694e+00 -3.7687203514881227e+00 0.0000000000000000e+00  1.4111823559326851e+01 -3.3072340297805018e+00 0.0000000000000000e+00  1.1955674696529011e+01 -2.5466887377446876e-02 0.0000000000000000e+00  7.8500052089376240e+00 -3.9573121507335283e+00 0.0000000000000000e+00  9.7055348534592980e+00 -3.5100787153780102e+00 0.0000000000000000e+00  1.7150017083096206e+01 -9.1193131845879076e+00 0.0000000000000000e+00  1.1969706275838508e+01 -1.3144043828232780e-03 0.0000000000000000e+00  1.1966271392802124e+01 1.7824226919568834e-04 0.0000000000000000e+00  7.0996770369181581e+00 -3.1471796415860571e+00 0.0000000000000000e+00  1.1915497011680090e+01 -1.1681696065178832e-01 0.0000000000000000e+00  1.1689104034836907e+01 -1.8877716990894816e-01 0.0000000000000000e+00  1.2293273637231037e+01 -7.5572695716399862e-01 0.0000000000000000e+00  1.0683044433028071e+01 -2.8286342176373291e+00 0.0000000000000000e+00  1.2207096882996481e+01 -9.2050398628557573e-01 0.0000000000000000e+00  1.2298034239266052e+01 -1.3385250349949624e+00 0.0000000000000000e+00  1.2011523494522409e+01 -8.1533047456974383e-01 0.0000000000000000e+00  1.0196601426337178e+01 -1.9456494634032657e+00 0.0000000000000000e+00  1.0960431424442779e+01 -2.8875319233641599e+00 0.0000000000000000e+00  1.0245024631126819e+01 -2.0289504472178614e+00 0.0000000000000000e+00  7.2169179881960455e+00 -4.9271170777863810e-01 0.0000000000000000e+00  1.1979592469985862e+01 -5.2459479948421097e-03 0.0000000000000000e+00  9.1993056427775048e+00 -3.5568762633962936e+00 0.0000000000000000e+00  1.0388032565492876e+01 -1.0655272925588639e+00 0.0000000000000000e+00  1.1978001836716082e+01 -3.4339160222335921e-02 0.0000000000000000e+00  1.1965895144693937e+01 -6.3809044976739695e-03 0.0000000000000000e+00  8.9313532133908016e+00 -4.2292054425320789e+00 0.0000000000000000e+00  9.4068846459054232e+00 -1.4736365783796428e+00 0.0000000000000000e+00  1.1874515410183813e+01 -2.5646282171730644e-01 0.0000000000000000e+00  1.2112384605437615e+01 -6.1144374236317245e-01 0.0000000000000000e+00  1.2434060677964682e+01 -7.8912718172952556e-01 0.0000000000000000e+00  1.1941511489572076e+01 -5.3696693212840922e-02 0.0000000000000000e+00  1.1728401393055440e+01 -4.4867338481381780e-01 0.0000000000000000e+00  9.1483221174641933e+00 -3.4182697888465086e+00 0.0000000000000000e+00  1.0371712280760955e+01 -1.1754732156083012e+00 0.0000000000000000e+00  8.9140728447027779e+00 -9.3100732193418203e+00 0.0000000000000000e+00  1.3210302279509518e+01 -6.7692392583981364e-01 0.0000000000000000e+00  1.3154849962821924e+01 -1.8218032676837164e+00 0.0000000000000000e+00  9.0432702342239963e+00 -2.5550714239008969e+00 0.0000000000000000e+00  1.2004606838588224e+01 -3.8760564588332477e-02 0.0000000000000000e+00  1.2516138188708490e+01 -1.5850764660052825e+00 0.0000000000000000e+00  9.0924953295345734e+00 -2.1085363387555729e+00 0.0000000000000000e+00  9.3859249345472868e+00 -1.7588426021305390e+00 0.0000000000000000e+00  1.2160599489181207e+01 -2.6703841122347455e-01 0.0000000000000000e+00  1.2048153538664941e+01 -9.3765801773995586e-02 0.0000000000000000e+00  1.1988166189949174e+01 -1.9422411826689259e-02 0.0000000000000000e+00  1.0070576824506251e+01 -4.5297129591970773e+00 0.0000000000000000e+00  1.1279868945735570e+01 -6.7891321279050376e-01 0.0000000000000000e+00  1.1335592809643511e+01 -1.4859125318338693e+00 0.0000000000000000e+00  1.1265125445363733e+01 -1.0989500012382600e+00 0.0000000000000000e+00  1.0717092861791727e+01 -1.5569445911740944e+00 0.0000000000000000e+00  1.1147121823214951e+01 -1.1748040177713051e+00 0.0000000000000000e+00  1.1894947959756069e+01 -2.5003445875171808e+00 0.0000000000000000e+00  1.1960941390107894e+01 -2.8310974744002695e+00 0.0000000000000000e+00  1.1872525096651261e+01 -5.5941972325652962e-02 0.0000000000000000e+00  1.9445948827126191e+01 -7.8658152316783680e-01 0.0000000000000000e+00  2.1016641249276788e+01 -7.1753916325163916e+00 0.0000000000000000e+00  1.1941626397227125e+01 -1.1903564141051761e-02 0.0000000000000000e+00  1.5319591899860256e+01 -2.2694378009198446e+00 0.0000000000000000e+00  1.1213567580826973e+01 -5.3727567477448346e-01 0.0000000000000000e+00  1.1521546380016218e+01 -4.6072889705654674e-01 0.0000000000000000e+00  7.8211043556849118e+00 -1.8786953072274786e+00 0.0000000000000000e+00  7.6694503736202186e+00 -1.8459956644368365e+00 0.0000000000000000e+00  1.1978876608465276e+01 -6.1776104278306809e-04 0.0000000000000000e+00  1.2255391684952432e+01 -3.6021258450796650e-01 0.0000000000000000e+00  1.2781324256382469e+01 -1.0361924282328674e+00 0.0000000000000000e+00  7.4295138739392836e+00 -3.2628364835842421e+00 0.0000000000000000e+00  9.6390919459408071e+00 -2.1535814954069985e+00 0.0000000000000000e+00  9.3598795447518057e+00 -4.4639125909095743e+00 0.0000000000000000e+00  7.4484327169369520e+00 -2.5364383434098725e+00 0.0000000000000000e+00  1.0782795487255386e+01 -1.5935171990676764e+00 0.0000000000000000e+00  1.2165135516511103e+01 -5.9585434188390540e-01 0.0000000000000000e+00  1.5570439605761891e+01 -5.2646092844861299e+00 0.0000000000000000e+00  6.7899356764880494e+00 -3.6180671946143215e+00 0.0000000000000000e+00  1.1841387206324219e+01 -1.2671672871280895e+00 0.0000000000000000e+00  6.7951795221257321e+00 -3.3959663284633637e+00 0.0000000000000000e+00  1.2160634314728631e+01 -9.6710692643628537e-01 0.0000000000000000e+00  1.0267305060491134e+01 -3.3629213368871991e+00 0.0000000000000000e+00  7.0849510176881063e+00 -3.2338216069973376e+00 0.0000000000000000e+00  1.2652013855323153e+01 -5.6613339059677492e-01 0.0000000000000000e+00  1.2297994773400633e+01 -5.1079883983329566e-01 0.0000000000000000e+00  1.0190574916513372e+01 -3.3935462551068478e+00 0.0000000000000000e+00  1.1973332696095287e+01 -5.4667660240152486e-03 0.0000000000000000e+00  7.0575102689171887e+00 -3.1017503872041661e+00 0.0000000000000000e+00  1.2944937764158732e+01 -1.0598433403027569e+01 0.0000000000000000e+00  9.1514534685509918e+00 -3.2830002700269918e+00 0.0000000000000000e+00  1.3364652385383842e+01 -1.6443486636000346e+00 0.0000000000000000e+00  7.4818487651650107e+00 -3.5205438740242441e+00 0.0000000000000000e+00  9.9097377292610016e+00 -1.5346138162072194e+00 0.0000000000000000e+00  1.0792923286795117e+01 -2.1709616949133053e+00 0.0000000000000000e+00  9.0401705986560632e+00 -2.7393048091472942e+00 0.0000000000000000e+00  1.1801646829525323e+01 -5.6213952815081891e-01 0.0000000000000000e+00  1.1868749591632628e+01 -6.6515413029220294e-01 0.0000000000000000e+00  1.1777659451561354e+01 -1.3629283367647949e+00 0.0000000000000000e+00  7.4764738215184394e+00 -2.5662303023034410e+00 0.0000000000000000e+00  8.3898185357636983e+00 -2.1748282675061450e+00 0.0000000000000000e+00  1.2721843680666671e+01 -2.8878183594578073e+00 0.0000000000000000e+00  8.2501448669286628e+00 -2.1017256814814580e+00 0.0000000000000000e+00  8.2999220612431870e+00 -3.7949016193642890e+00 0.0000000000000000e+00  1.1982465994197183e+01 -1.1053344254899077e-02 0.0000000000000000e+00  1.1436956160386629e+01 -5.1372488962973006e-01 0.0000000000000000e+00  5.0615470981215536e+00 -9.2593656903955441e+00 0.0000000000000000e+00  8.6020767626221097e+00 -3.2076096076369889e+00 0.0000000000000000e+00  8.2679490916614995e+00 -3.7026497574701303e+00 0.0000000000000000e+00  9.7880355289958239e+00 -1.6928830103720862e+00 0.0000000000000000e+00  7.7974906491878393e+00 -4.8549826004044752e+00 0.0000000000000000e+00  1.2254879719322274e+01 -4.0502129859264082e+00 0.0000000000000000e+00  1.1621381649632847e+01 -9.2255243709538881e-01 0.0000000000000000e+00  1.2000981705298747e+01 -7.6057822334635439e-01 0.0000000000000000e+00  1.1982602629127815e+01 -1.4540802359482485e-03 0.0000000000000000e+00  1.1828524142420720e+01 -1.6829681983818784e-01 0.0000000000000000e+00  1.2385108575382175e+01 -5.2014229181207150e-01 0.0000000000000000e+00  1.0220820011052588e+01 -1.5492096326732103e+00 0.0000000000000000e+00  1.2061884697878673e+01 -1.9876881551843275e+00 0.0000000000000000e+00  1.0184019654209028e+01 -2.6982192589029892e+00 0.0000000000000000e+00  1.1917650023181322e+01 -4.1413101118924924e+00 0.0000000000000000e+00  1.1901157790350751e+01 -1.9739579226181492e+00 0.0000000000000000e+00  1.0851915505816176e+01 -2.1511633474549283e+00 0.0000000000000000e+00  9.8168196244386792e+00 -3.3877432946324055e+00 0.0000000000000000e+00  1.1301102919440130e+01 -4.8709649412441705e+00 0.0000000000000000e+00  1.0894303883948256e+01 -3.8014433787965025e+00 0.0000000000000000e+00  1.1992561264884582e+01 -7.7906576177269333e-03 0.0000000000000000e+00  1.2029753663534501e+01 -3.0448033264452246e-01 0.0000000000000000e+00  1.1972157108673693e+01 -1.2605602801127086e-01 0.0000000000000000e+00  1.2104193020039869e+01 -1.6231532284915665e-01 0.0000000000000000e+00  6.5080489661872463e+00 -3.2065121425387102e+00 0.0000000000000000e+00  9.9018229547919052e+00 -3.7469854210611522e+00 0.0000000000000000e+00  1.0008821272508062e+01 -4.1072467773445878e+00 0.0000000000000000e+00  6.9342494657109430e+00 -2.6853704054967551e+00 0.0000000000000000e+00  9.7023259293771016e+00 -2.2049953310544628e+00 0.0000000000000000e+00  6.7895332015895633e+00 -3.0210598527559709e+00 0.0000000000000000e+00  1.1969703961728351e+01 -2.5781119707173408e-03 0.0000000000000000e+00  1.1959517154441853e+01 -9.6270926337680019e-03 0.0000000000000000e+00  7.3465763589607143e+00 -4.4478551204325472e+00 0.0000000000000000e+00  1.2234525494680474e+01 -1.5506319259915272e-01 0.0000000000000000e+00  1.3206417471278760e+01 -1.4962874153444092e+00 0.0000000000000000e+00  1.2018213556054315e+01 -1.8222607877284056e-02 0.0000000000000000e+00  1.2656386659474505e+01 -5.7126035135987696e-01 0.0000000000000000e+00  1.2091977170605187e+01 -6.4000301502623119e-02 0.0000000000000000e+00  1.2069540316655837e+01 -3.5608212872132100e-01 0.0000000000000000e+00  1.1783168037728451e+01 -2.2646400977518327e-01 0.0000000000000000e+00  1.0301441334013354e+01 -4.0704062074428027e+00 0.0000000000000000e+00  8.5822455114292726e+00 -6.2158294185245513e+00 0.0000000000000000e+00  1.0812947176334339e+01 -1.0173093572908312e+00 0.0000000000000000e+00  9.8013164662460550e+00 -3.1669670329327890e+00 0.0000000000000000e+00  9.6161101144188788e+00 -3.6305482401521010e+00 0.0000000000000000e+00  9.3011627158381636e+00 -3.5154783214451113e+00 0.0000000000000000e+00  6.8239703471628008e+00 -4.4861105168726052e+00 0.0000000000000000e+00  1.2134949873356618e+01 -7.3019976175731593e-01 0.0000000000000000e+00  1.0279546225561800e+01 -1.4421298414069788e+00 0.0000000000000000e+00  1.0792851687576020e+01 -1.1117862639373326e+00 0.0000000000000000e+00  1.1941317823522756e+01 -9.4883895728071835e-02 0.0000000000000000e+00  1.1170059075923135e+01 -3.6065554192599150e+00 0.0000000000000000e+00  8.4229408275798505e+00 -5.0626260481572034e+00 0.0000000000000000e+00  1.2172092802573745e+01 -7.0424383880500341e-01 0.0000000000000000e+00  1.2182335427020206e+01 -9.7094132139721201e-01 0.0000000000000000e+00  1.1942608524162283e+01 -1.8484965962418040e-01 0.0000000000000000e+00  1.1460478225565250e+01 -7.8835274933894495e-01 0.0000000000000000e+00  1.1265848981272248e+01 -7.7563641247001514e-01 0.0000000000000000e+00  1.0122655625495307e+01 -2.6056674181678385e+00 0.0000000000000000e+00  8.8222368925459218e+00 -2.9779494271507607e+00 0.0000000000000000e+00  9.1989929806556159e+00 -2.0715889486948855e+00 0.0000000000000000e+00  1.3300238365430054e+01 -1.1245518169928361e+00 0.0000000000000000e+00  1.1907222147484106e+01 -6.9249802351090267e-02 0.0000000000000000e+00  6.7995731437382636e+00 -3.2348966760947113e+00 0.0000000000000000e+00  6.7256603741977239e+00 -3.9383012659161087e+00 0.0000000000000000e+00  7.1298846367889368e+00 -2.7888282465372858e+00 0.0000000000000000e+00  1.3925918542839065e+01 -7.6484313986159167e+00 0.0000000000000000e+00  7.7463129124128889e+00 -2.8947099283651281e+00 0.0000000000000000e+00  1.3447412894938552e+01 -4.8030458438597670e+00 0.0000000000000000e+00  1.1967238029299407e+01 -2.2714895615873674e-02 0.0000000000000000e+00  1.4341617235410240e+01 -1.9900066632332272e+00 0.0000000000000000e+00  1.1937355242424784e+01 -3.2155389999965749e-02 0.0000000000000000e+00  1.8035770504144182e+01 -5.8912342761667036e+00 0.0000000000000000e+00  1.9680569239371831e+01 -9.5062552656934418e+00 0.0000000000000000e+00  7.5838523703087404e+00 -3.0597562985762323e+00 0.0000000000000000e+00  9.2114780904026698e+00 -2.9283720184142470e+00 0.0000000000000000e+00  1.0297924538149472e+01 -2.6326413634597303e+00 0.0000000000000000e+00  1.1936025643848868e+01 -1.9342977244894017e+00 0.0000000000000000e+00  9.9152486174934964e+00 -1.8207238208825627e+00 0.0000000000000000e+00  1.2527775093884291e+01 -7.5818001985066241e-01 0.0000000000000000e+00  1.2661711486246942e+01 -6.7805247113768552e-01 0.0000000000000000e+00  1.28212211966175