<?xml version="1.0"?>
<VTKFile type="UnstructuredGrid"  version="0.1"  >
<UnstructuredGrid>
<Piece  NumberOfPoints="1981" NumberOfCells="3668">
<Points>
<DataArray  type="Float64"  NumberOfComponents="3"  format="ascii">-2 0.5 0  -2 0 0  -0.5 0 0  -0.4968561049466213 -0.05598223805165387 0  -0.4874639560909119 -0.1112604669781569 0  -0.4719416651541838 -0.1651395309775835 0  -0.4504844339512096 -0.216941869558779 0  -0.4233620996141421 -0.2660160382576682 0  -0.3909157412340148 -0.3117449009293669 0  -0.3535533905932738 -0.3535533905932737 0  -0.3117449009293669 -0.3909157412340148 0  -0.2660160382576683 -0.4233620996141421 0  -0.2169418695587791 -0.4504844339512095 0  -0.1651395309775836 -0.4719416651541837 0  -0.1112604669781573 -0.4874639560909118 0  -0.05598223805165402 -0.4968561049466213 0  -9.184850993605148e-17 -0.5 0  2 -0.5 0  2 0 0  0.5 0 0  0.4968561049466213 0.05598223805165393 0  0.4874639560909118 0.1112604669781572 0  0.4719416651541838 0.1651395309775835 0  0.4504844339512096 0.2169418695587791 0  0.4233620996141421 0.2660160382576683 0  0.3909157412340149 0.3117449009293667 0  0.3535533905932738 0.3535533905932737 0  0.3117449009293668 0.3909157412340149 0  0.2660160382576683 0.4233620996141421 0  0.2169418695587791 0.4504844339512096 0  0.1651395309775837 0.4719416651541837 0  0.1112604669781572 0.4874639560909118 0  0.05598223805165384 0.4968561049466213 0  3.061616997868383e-17 0.5 0  0.1398708344106534 0.05418624992807294 0  0.15 0 0  0.1398708344106534 -0.05418624992807295 0  0.1108513375830988 -0.1010543465469837 0  0.06686075336648065 -0.1342744937032594 0  0.01384025391949536 -0.1493601264442552 0  -0.04104944851081246 -0.1442738464759228 0  -0.09039519545688858 -0.1197025840920358 0  -0.1275325703594421 -0.07896482443160337 0  -0.1474459649525853 -0.02756242767248552 0  -0.1474459649525853 0.02756242767248555 0  -0.1275325703594421 0.07896482443160341 0  -0.09039519545688844 0.1197025840920359 0  -0.04104944851081243 0.1442738464759228 0  0.0138402539194953 0.1493601264442552 0  0.06686075336648074 0.1342744937032593 0  0.1108513375830989 0.1010543465469836 0  -1 0.5 0  1 -0.5 0  -1.25 0 0  -0.5 0.5 0  1.25 0 0  0.4999999999999999 -0.5 0  -1.5 0.5 0  1.5 -0.5 0  -0.875 0 0  0.875 0 0  -1.625 0 0  1.625 0 0  0.6875 -0.2500000000000001 0  -0.6875 0.25 0  -2 0.25 0  1.75 -0.5 0  0.2499999999999999 -0.5 0  -0.3583969912126916 0.25 0  0.3749999999999999 -0.25 0  -1.0625 0.21875 0  1.0625 -0.21875 0  -1.75 0.5 0  -1.25 0.5 0  -1.375 0.25 0  1.4375 -0.21875 0  2 -0.25 0  1.25 -0.5 0  1.7375 -0.2375 0  -1.7375 0.2375 0  0.75 -0.5 0  -0.75 0.5 0  -0.25 0.5 0  -0.1570377317087672 0.3153742794659282 0  0.1249999999999999 -0.3338777090152827 0  -0.8826650943396226 0.3263561320754717 0  0.8826650943396227 -0.3263561320754717 0  1.25 -0.1897321428571428 0  1.4375 0 0  -1.4375 0 0  1.0625 0 0  -1.0625 0 0  -0.6875 0 0  0.6875 0 0  1.8125 0 0  -1.8125 0 0  0.3263011380546194 -0.06940056902730968 0  -1.554017857142857 0.1790178571428572 0  0.08847100915780901 0.3109433440851622 0  -0.2412983234264066 -0.2156373655531345 0  -1.625 0.3744047619047619 0  1.625 -0.3744047619047619 0  0.2743272717766799 0.1698562554772697 0  -0.3279338175957848 0.06764246763930631 0  -1.863068181818182 0.3630681818181818 0  2 -0.375 0  1.875 -0.5 0  -0.05442366733490933 -0.3203147637646457 0  1.321986607142857 -0.3448660714285714 0  1.125 -0.5 0  -1.209821428571429 0.3236607142857143 0  -0.5229484956063458 0.1781011282952406 0  0.9067445847815293 -0.1625224987586892 0  -0.8335714777578845 0.1642411083184135 0  -1.237063437253354 0.1627182813733228 0  -0.4947697009489606 0.3378596801347012 0  0.53125 -0.171875 0  0.5156249999999999 -0.3359375 0  -2 0.125 0  1.873225308641975 -0.1497685185185185 0  0.2341337966231563 -0.1911191776024666 0  -0.625 0.5 0  1.587453076345555 -0.2288757784711196 0  1.8125 -0.3654761904761905 0  -0.3326862624810256 -0.08869875963335262 0  -0.375 0.5 0  1.174048204529175 -0.319244854540162 0  -1.067618031042359 0.3674567846760797 0  -0.96875 0.109375 0  1.481463366596639 -0.3565498074229692 0  1.023503306098383 -0.3576535124663073 0  -0.2265388519390893 0.1866542405407749 0  0.625 -0.5 0  -1.852445652173913 0.1432065217391304 0  -1.375 0.5 0  -1.479101577239454 0.3541992113802732 0  0.2708871299591885 -0.3541935649795943 0  1.520204106978579 -0.109375 0  0.78125 -0.1026731411563172 0  -0.3125 0.3785994323952442 0  0.3749999999999999 -0.5 0  1.141568346088435 -0.109375 0  1.358431653911565 -0.109375 0  1.668712727161379 -0.1246887081867154 0  -1.673050595238095 0.1226339285714286 0  -1.34375 0 0  -1.431523109243698 0.1313182773109244 0  -0.7546231943577876 0.3660317014105531 0  -0.6233296454587935 0.3645528204344609 0  0.7546231943577878 -0.3660317014105531 0  0.6537002726710706 -0.125 0  -0.6441338591766993 0.125 0  1.375 -0.5 0  -2 0.375 0  -1.875 0.5 0  1.625 -0.5 0  -1.625 0.5 0  0.875 -0.5 0  -0.875 0.5 0  0.1249999999999999 -0.5 0  -0.125 0.5 0  2 -0.125 0  -1.125 0.5 0  -1.354082022940739 0.375 0  -0.03500388138134332 0.2732363193989585 0  0.3955099577726473 -0.3752808566622692 0  0.3596026196703111 0.0631070919012526 0  -0.0625 0.394061918116807 0  0.6342080192637126 -0.3582597885274255 0  -1.123666900137815 0.109375 0  -1.744588744588745 0.3803841991341991 0  0.2210084381421171 0.2925777566973838 0  0.8072251313743133 -0.2315819627814412 0  -0.1814335426834733 -0.3282792760620681 0  -0.9356634513979559 0.2218154628239019 0  0.4183753556420685 -0.1414382112841371 0  -0.1238894550978499 -0.2292394949250368 0  0.96875 0 0  1.013652292192466 -0.1102204462032291 0  -0.4393328341626322 0.09834605222123384 0  1.882206434331873 -0.2686982850037661 0  0.1426699461850768 0.2146575767791519 0  -1.886304127069339 0.251758104550396 0  0.2495743011762567 0.06264742837969955 0  -0.78125 0 0  0.04042933102838756 -0.2590839715717854 0  -1.53125 0 0  -0.5823692714154002 0.2663576540687616 0  -0.2594008044921133 0.2871583817002197 0  -0.9375 0.4157678007976423 0  0.9696186653311423 -0.2675997292662616 0  -0.7942971416386473 0.2646257048857303 0  0.06249999999999992 -0.4169388545076413 0  0.1874999999999999 -0.4169388545076413 0  -1.562839467699977 0.2864000626355251 0  -0.1875 0.4157529178973974 0  -0.1223698320396133 0.2179970721626365 0  1.770639498024741 -0.1399156735731578 0  0.9367002721196375 -0.4157324987180338 0  -1.90625 0 0  -0.2298618769854927 -0.08904896555277285 0  0.1397131066802196 -0.232031643549068 0  -0.4375 0.420861596936145 0  -0.3483554784186823 -0.1925292675214375 0  0.59375 0 0  -1.327632151430252 0.1057660692693074 0  -0.9830051201906395 0.3115204496273563 0  1.90625 0 0  1.236354269160391 -0.3993990952861421 0  -1.1875 0.4214935578661845 0  0.5625 -0.4247705455161483 0  -0.7349377422908023 0.1635199768201956 0  -1.583328550170068 0.08705835459183674 0  -1.640104497493491 0.2259991665335075 0  -1.467109316827997 0.2210671404637805 0  0.5896070530325394 -0.2690578560650788 0  0.3266472067106532 -0.167734762534917 0  -0.59375 0 0  -0.546875 0.08448914438556519 0  1.71875 0 0  1.156078290691277 -0.2031315651260504 0  1.337704613095238 -0.2433035714285714 0  1.236312294597949 -0.09486607142857142 0  0.1642123379155914 0.3701207892454864 0  0.2345507206108115 -0.04384512844718241 0  -0.4048861533022036 -0.02273791864794379 0  0.03798857341016919 0.3979165301900267 0  -0.4006523628802168 0.334179001454817 0  -0.1135990210174155 -0.393340785880617 0  1.906775738056482 -0.3598876272511091 0  1.720393990929705 -0.4044642857142857 0  -1.71875 0 0  1.15625 0 0  0.78125 0 0  1.53125 0 0  -0.96875 0 0  1.34375 0 0  -1.15625 0 0  1.142828909845958 -0.4078056758504979 0  0.40697192225457 -0.01923608979840619 0  -1.767708120728825 0.08966855818957545 0  -0.6882384924227143 0.4308047125515967 0  -0.3636785153797087 0.1553944795036722 0  -0.2291274285977749 0.08616080495998404 0  -0.281012338688557 -0.01202669255906096 0  0.3108677056378212 0.2586754570559801 0  -1.151751953043632 0.196872287087452 0  -0.5625 0.4330368698813529 0  0.6875 -0.4328910527173583 0  1.405021000845949 -0.3057191080886871 0  0.546875 -0.08025568181818182 0  0.3713523302229579 0.1599284134935842 0  -1.12196127795563 0.2911449911382941 0  -1.276991293863022 0.2522534749828799 0  1.255195006158927 -0.2798057638555942 0  -0.8388532729558951 0.4114132763440825 0  0.8388532729558953 -0.4114132763440825 0  -0.4557763550657601 0.2486174768248819 0  0.2049883534781638 -0.2934473685517857 0  0.3226059585583683 -0.4273378498573185 0  -1.426982449282418 0.4270508114904024 0  1.397702183984896 -0.4056170514003312 0  0.05467855045156804 0.2285245978493705 0  -0.272823163096586 -0.3046204408381326 0  -0.02656096412551515 -0.4126877256833236 0  -1.807235369718798 0.2933328120993839 0  0.1906985117418444 0.1399478964461678 0  -1.688085622354259 0.3115694793217502 0  1.659329587961023 -0.2879395206246994 0  -1.5625 0.437202380952381 0  1.546313524296827 -0.4210926184041992 0  -1.813279560389256 0.4363923695021056 0  -1.926524548924358 0.4265245489243581 0  -0.1751061200004134 -0.1578066000831913 0  0.2891187728554643 -0.268298186700636 0  0.4721679687499999 -0.2490234375 0  0.7276683718449491 -0.1720688736051095 0  0.4744973194747868 -0.4152356216385488 0  0.9322020604693165 -0.07914563824612769 0  -1.275602471792197 0.4154857864535745 0  -0.828125 0.07552171441918698 0  1.3125 -0.5 0  -1.931646474339171 0.178059096704675 0  -0.7167268019830385 0.08016211756451477 0  1.060414578698922 -0.4368616551407768 0  -1.6875 0.5 0  1.9375 -0.5 0  1.739833210773432 -0.3220974693894793 0  -2 0.3125 0  -1.207440692409131 0.07848980221212992 0  -0.04055821595704934 -0.2377097412335854 0  0.1922531441870086 -0.1190381071624572 0  1.509237778147088 -0.2717758217431455 0  0.8901922386429052 -0.2437760747352658 0  -1.498530569603453 0.07867879855510211 0  0.9849923856958628 -0.1870513965806273 0  1.515605916195201 -0.1906351698786736 0  1.439317880445072 -0.08458133750179306 0  1.932491348856277 -0.2050969650933771 0  1.828075655121533 -0.08087981225769847 0  1
[...]
<PointData  Vectors="f_39"> 
<DataArray  type="Float64"  Name="f_39"  NumberOfComponents="3" format="ascii">2.4664625970930558e+01 -7.9687762504723514e-01 0.0000000000000000e+00  6.7614719119773264e-02 1.7231437540266620e-01 0.0000000000000000e+00  1.0852572874410491e+01 -3.4655235631263834e+00 0.0000000000000000e+00  1.1106872903983703e+01 -3.8440632595590882e+00 0.0000000000000000e+00  1.1227694882606457e+01 -4.3404391619403757e+00 0.0000000000000000e+00  1.0141494380154155e+01 -5.6404109680114285e+00 0.0000000000000000e+00  9.2580251415503962e+00 -5.6771438592952919e+00 0.0000000000000000e+00  8.4201095874967731e+00 -5.2145903936088045e+00 0.0000000000000000e+00  8.0071477376486513e+00 -4.8617711250355136e+00 0.0000000000000000e+00  7.7375034832583731e+00 -4.6342600069922764e+00 0.0000000000000000e+00  7.5796821368293541e+00 -4.0669405415376438e+00 0.0000000000000000e+00  7.5128590994277067e+00 -3.8832775366004966e+00 0.0000000000000000e+00  7.5259458653990530e+00 -3.7234656297967015e+00 0.0000000000000000e+00  7.5290068779080368e+00 -3.5658315782902630e+00 0.0000000000000000e+00  7.5588601871026988e+00 -3.4674779171367711e+00 0.0000000000000000e+00  7.6791182531141580e+00 -3.2494323682187294e+00 0.0000000000000000e+00  7.8127778704240916e+00 -3.2072706443311101e+00 0.0000000000000000e+00  1.1746322918757896e+01 -3.4085540692213768e-04 0.0000000000000000e+00  1.1776882381240883e+01 -1.8544692671398146e-04 0.0000000000000000e+00  1.0851959185101622e+01 -3.5416124368539554e+00 0.0000000000000000e+00  1.1263009731705116e+01 -4.1665495751491326e+00 0.0000000000000000e+00  1.0994396855569406e+01 -4.8642942147241230e+00 0.0000000000000000e+00  1.0593351672455670e+01 -5.3547673664388054e+00 0.0000000000000000e+00  9.2676691448242963e+00 -5.8016787757525918e+00 0.0000000000000000e+00  8.2875912133775884e+00 -5.4187482159341087e+00 0.0000000000000000e+00  7.7723816456487675e+00 -4.8950058134645467e+00 0.0000000000000000e+00  7.6704815700696836e+00 -4.6769607427721995e+00 0.0000000000000000e+00  7.4303072499168579e+00 -4.3259242862046143e+00 0.0000000000000000e+00  7.2741711583319448e+00 -4.1467236036282697e+00 0.0000000000000000e+00  7.2300464931065047e+00 -3.7035203730092219e+00 0.0000000000000000e+00  7.1955395811403760e+00 -3.4861142788303563e+00 0.0000000000000000e+00  7.3150258317331351e+00 -3.2488120371108176e+00 0.0000000000000000e+00  7.3990633096427088e+00 -3.1161202642871206e+00 0.0000000000000000e+00  7.7075149312683395e+00 -2.9309868568751325e+00 0.0000000000000000e+00  9.7874833800511922e+00 -1.7256022483975468e+00 0.0000000000000000e+00  1.1180511917127282e+01 -2.6711002423721197e+00 0.0000000000000000e+00  1.1341387836009723e+01 -4.3774786185433801e+00 0.0000000000000000e+00  1.0385288230013570e+01 -5.4200709153528610e+00 0.0000000000000000e+00  8.5815283132358573e+00 -5.7542943034349756e+00 0.0000000000000000e+00  7.3719795241000430e+00 -4.7936475411906363e+00 0.0000000000000000e+00  6.8467223255208118e+00 -3.2157541689178046e+00 0.0000000000000000e+00  7.6197610682224175e+00 -2.2729804738168564e+00 0.0000000000000000e+00  8.7881982860606662e+00 -1.8840000166584385e+00 0.0000000000000000e+00  1.0600203412876983e+01 -2.2370057080693804e+00 0.0000000000000000e+00  1.1524333888910915e+01 -3.2742625966218357e+00 0.0000000000000000e+00  1.0592947700096337e+01 -4.9590715036409803e+00 0.0000000000000000e+00  9.2055250866739389e+00 -5.5414221083112887e+00 0.0000000000000000e+00  7.5530040602856428e+00 -5.2089525055532793e+00 0.0000000000000000e+00  7.1308771785951235e+00 -3.7703524750655433e+00 0.0000000000000000e+00  7.0529234561248639e+00 -3.3636649264502227e+00 0.0000000000000000e+00  8.5541169318659485e+00 -1.6755357154843424e+00 0.0000000000000000e+00  1.2066013620057177e+01 -6.7663777108078660e-01 0.0000000000000000e+00  1.1140333716138715e+01 -5.3907214938831471e-01 0.0000000000000000e+00  1.1653058737983139e+01 -8.0320056133993289e-01 0.0000000000000000e+00  1.0024239264957671e+01 -1.9603458995934269e+00 0.0000000000000000e+00  1.2016147164301231e+01 -1.8827670878717326e-01 0.0000000000000000e+00  9.7023018860908987e+00 -2.0120009297453376e+00 0.0000000000000000e+00  1.5214388621673951e+01 -2.2163161085606875e+00 0.0000000000000000e+00  1.1672358804197312e+01 -4.7240282770287474e-02 0.0000000000000000e+00  1.3214346454700117e+01 -1.5750468966923838e+00 0.0000000000000000e+00  1.2733193997272824e+01 -1.3487683186420465e+00 0.0000000000000000e+00  7.8731814811444796e+00 -4.4623318252851565e+00 0.0000000000000000e+00  1.1807861187264104e+01 -2.4068896420330863e-02 0.0000000000000000e+00  1.1088159571380496e+01 -2.1668620025384469e+00 0.0000000000000000e+00  1.1493898134010868e+01 -2.2076320268877048e+00 0.0000000000000000e+00  1.3789772201333136e+01 -5.1207587502728924e-01 0.0000000000000000e+00  1.1730263164334495e+01 -8.0198391342181166e-03 0.0000000000000000e+00  8.9697680822702193e+00 -2.4652169834742699e+00 0.0000000000000000e+00  1.0005658184016376e+01 -3.0278769536300731e+00 0.0000000000000000e+00  9.9931851720374905e+00 -3.0873352809062218e+00 0.0000000000000000e+00  1.2331955954949576e+01 -1.1554250797191046e+00 0.0000000000000000e+00  1.1788166388421271e+01 -6.6507453171592457e-01 0.0000000000000000e+00  1.9200691699068077e+01 -5.5783538971690714e+00 0.0000000000000000e+00  1.3109159859912243e+01 -8.1397321129527378e-01 0.0000000000000000e+00  1.2386500284570715e+01 -2.1918050880760913e+00 0.0000000000000000e+00  1.1781743164130761e+01 -1.2382670999820368e-01 0.0000000000000000e+00  1.1760078775586438e+01 -1.5053887505969883e-03 0.0000000000000000e+00  1.1514236201336875e+01 -1.7651965780195156e-01 0.0000000000000000e+00  1.1760638087452341e+01 -2.9419331876007537e-02 0.0000000000000000e+00  1.2536637856604868e+01 -8.5982750353279975e+00 0.0000000000000000e+00  1.0474505122071276e+01 -1.2017192046341860e+00 0.0000000000000000e+00  1.1033441980404495e+01 -1.0435707682120303e+00 0.0000000000000000e+00  8.9230639620955383e+00 -2.2178687900901797e+00 0.0000000000000000e+00  8.8477292461690986e+00 -3.3224433622659366e+00 0.0000000000000000e+00  8.6247382468445313e+00 -3.5409969418175629e+00 0.0000000000000000e+00  1.1872194430857235e+01 -1.2349722001663770e+00 0.0000000000000000e+00  1.1295127616245169e+01 -1.1011333745597212e+00 0.0000000000000000e+00  1.1812408138232353e+01 -2.9742376861537656e-01 0.0000000000000000e+00  1.1876643122534167e+01 -6.9937032451605166e-02 0.0000000000000000e+00  1.0308528207634009e+01 -1.6507314152006183e+00 0.0000000000000000e+00  1.2327911204503829e+01 -4.3888032702032198e-01 0.0000000000000000e+00  1.2578762393807740e+01 -7.3880333057663639e-01 0.0000000000000000e+00  1.3284758450301021e+01 -3.6373722253602501e+00 0.0000000000000000e+00  1.2441324022638467e+01 -3.4018665515801536e+00 0.0000000000000000e+00  1.1782527186986304e+01 -7.0910939837913588e-03 0.0000000000000000e+00  5.8789281484050040e+00 -9.8603643842985722e+00 0.0000000000000000e+00  1.0394887300932607e+01 -3.5843822898698767e+00 0.0000000000000000e+00  1.1317675160904610e+01 -4.1074484133268712e+00 0.0000000000000000e+00  7.6572684276841843e+00 -3.5161240328266419e+00 0.0000000000000000e+00  8.4289393143897051e+00 -3.7091529900230951e+00 0.0000000000000000e+00  1.4949839485869083e+01 -4.9708748921904453e+00 0.0000000000000000e+00  1.1729092106364394e+01 -4.6236811103493640e-02 0.0000000000000000e+00  8.8941968020339335e+00 -3.7806629942678631e+00 0.0000000000000000e+00  1.0351104600270750e+01 -3.5192847652164923e+00 0.0000000000000000e+00  1.7985699109583859e+01 -1.2309126015819178e+01 0.0000000000000000e+00  1.1749598410688202e+01 -2.3263921571262981e-03 0.0000000000000000e+00  1.1742576223149690e+01 -3.0750380711911792e-03 0.0000000000000000e+00  7.7903424528443166e+00 -3.5916552625600766e+00 0.0000000000000000e+00  1.1671301892107925e+01 -1.9079882606285417e-01 0.0000000000000000e+00  1.1360645399108980e+01 -3.1789121849915664e-01 0.0000000000000000e+00  1.2565265758187211e+01 -1.2543871930016011e+00 0.0000000000000000e+00  1.0785863304159816e+01 -3.0130865054545999e+00 0.0000000000000000e+00  1.1994704000181535e+01 -1.2478826727594732e+00 0.0000000000000000e+00  1.2375650663044548e+01 -1.8123769864655608e+00 0.0000000000000000e+00  1.2099200282334188e+01 -1.3576244795201717e+00 0.0000000000000000e+00  1.0351784614857294e+01 -2.3421429090168631e+00 0.0000000000000000e+00  1.0747342379164317e+01 -2.9356815451702825e+00 0.0000000000000000e+00  1.0141318948295794e+01 -2.3959484015720607e+00 0.0000000000000000e+00  7.2523785351400836e+00 -2.6820530812164767e-01 0.0000000000000000e+00  1.1769607797685097e+01 -1.0100113430081947e-02 0.0000000000000000e+00  9.7630500407707412e+00 -3.8681905646454813e+00 0.0000000000000000e+00  1.0408147662558104e+01 -1.4948858141102264e+00 0.0000000000000000e+00  1.1766090441892436e+01 -6.0496832930721070e-02 0.0000000000000000e+00  1.1744659236374526e+01 -1.3584998018670002e-02 0.0000000000000000e+00  9.8911301590177274e+00 -3.8323849676132351e+00 0.0000000000000000e+00  9.6278885796188849e+00 -2.0661792419393632e+00 0.0000000000000000e+00  1.1619284502838688e+01 -3.9142918353497341e-01 0.0000000000000000e+00  1.2324459121719707e+01 -9.8454947690732608e-01 0.0000000000000000e+00  1.2612682582536486e+01 -1.2242884343038098e+00 0.0000000000000000e+00  1.1707419067667095e+01 -9.2431808061590154e-02 0.0000000000000000e+00  1.1437552738306119e+01 -6.5092346982670113e-01 0.0000000000000000e+00  9.8015643863815178e+00 -3.8476237145664705e+00 0.0000000000000000e+00  1.0082216085952011e+01 -1.6166532142090462e+00 0.0000000000000000e+00  8.8809583752470296e+00 -1.2119975334153834e+01 0.0000000000000000e+00  1.3949572153762368e+01 -1.2374594406587145e+00 0.0000000000000000e+00  1.3762474112925577e+01 -2.8863604739128013e+00 0.0000000000000000e+00  9.3333443654895731e+00 -3.0721694839276608e+00 0.0000000000000000e+00  1.1809168053543615e+01 -6.9216124138016061e-02 0.0000000000000000e+00  1.2201906840625497e+01 -2.0252900603691426e+00 0.0000000000000000e+00  9.4570696888035748e+00 -2.6337418417518852e+00 0.0000000000000000e+00  9.4060911071482192e+00 -2.4219860446359829e+00 0.0000000000000000e+00  1.2013611671088601e+01 -4.1692041248077938e-01 0.0000000000000000e+00  1.1871730689306894e+01 -1.5865208046448959e-01 0.0000000000000000e+00  1.1783874969693805e+01 -3.6006923084532710e-02 0.0000000000000000e+00  9.7698360569637455e+00 -6.6168620172922852e+00 0.0000000000000000e+00  1.0982383850262115e+01 -1.2375153491082598e+00 0.0000000000000000e+00  1.1149804433936135e+01 -2.4126975820082448e+00 0.0000000000000000e+00  1.1313326436759155e+01 -1.4657660732351367e+00 0.0000000000000000e+00  1.0779329249026789e+01 -1.9445856855846180e+00 0.0000000000000000e+00  1.0836352247821514e+01 -1.5103289724018349e+00 0.0000000000000000e+00  1.1459421586557502e+01 -2.7526536620236621e+00 0.0000000000000000e+00  1.1783099500076354e+01 -3.1589798415130668e+00 0.0000000000000000e+00  1.1600835674402910e+01 -1.0299763015298516e-01 0.0000000000000000e+00  1.9480955230119065e+01 -6.8837852046539627e-01 0.0000000000000000e+00  2.2711805705997957e+01 -1.0846548023622249e+01 0.0000000000000000e+00  1.1705737853843935e+01 -2.5214458322175420e-02 0.0000000000000000e+00  1.6664325830286160e+01 -3.7572843344333586e+00 0.0000000000000000e+00  1.0829505665914086e+01 -8.0438437488141112e-01 0.0000000000000000e+00  1.1601161738402283e+01 -7.4328582770184337e-01 0.0000000000000000e+00  8.2940965738134587e+00 -2.7362282451527560e+00 0.0000000000000000e+00  8.2018633215248364e+00 -2.6243034765493807e+00 0.0000000000000000e+00  1.1768424719745322e+01 -1.6186135777415886e-03 0.0000000000000000e+00  1.2567397160278515e+01 -6.5694774643010634e-01 0.0000000000000000e+00  1.3281851107454449e+01 -1.7245851447576097e+00 0.0000000000000000e+00  8.0066404723666462e+00 -3.7593918232775829e+00 0.0000000000000000e+00  9.7030491572081363e+00 -2.6266578603571400e+00 0.0000000000000000e+00  1.0217337787897263e+01 -3.9445405990458879e+00 0.0000000000000000e+00  8.0866676094663550e+00 -3.1679173947725108e+00 0.0000000000000000e+00  1.0536147401299299e+01 -1.9393440384268221e+00 0.0000000000000000e+00  1.2283526342519318e+01 -1.0023280011004159e+00 0.0000000000000000e+00  1.6598615583817345e+01 -7.5895297056928648e+00 0.0000000000000000e+00  7.8423500698099966e+00 -3.8503408173133264e+00 0.0000000000000000e+00  1.1555132442644803e+01 -1.5944336721973522e+00 0.0000000000000000e+00  7.8013154124198980e+00 -3.6938671372731631e+00 0.0000000000000000e+00  1.2292979565610210e+01 -1.3944270238127539e+00 0.0000000000000000e+00  1.0419818841988507e+01 -3.2885135414673976e+00 0.0000000000000000e+00  7.8140734285825131e+00 -3.3267125613362234e+00 0.0000000000000000e+00  1.2609576057425032e+01 -8.9868103690889645e-01 0.0000000000000000e+00  1.2166946140907939e+01 -7.5707612767684551e-01 0.0000000000000000e+00  1.0510492692304235e+01 -3.3698360577616211e+00 0.0000000000000000e+00  1.1757629648855611e+01 -1.0753317101523297e-02 0.0000000000000000e+00  7.8391668594177073e+00 -3.2418405296199255e+00 0.0000000000000000e+00  1.3168890295285822e+01 -1.3505616531681635e+01 0.0000000000000000e+00  1.0005943489193454e+01 -3.0247958216138238e+00 0.0000000000000000e+00  1.3426851169987021e+01 -2.4185495359445932e+00 0.0000000000000000e+00  7.9991611494214574e+00 -4.0968794464392371e+00 0.0000000000000000e+00  9.1369488084503931e+00 -2.6559967556170951e+00 0.0000000000000000e+00  1.0872780377307024e+01 -2.4949859508921000e+00 0.0000000000000000e+00  9.5070829799208756e+00 -3.2026947988452323e+00 0.0000000000000000e+00  1.1939167679647346e+01 -8.7507629452737323e-01 0.0000000000000000e+00  1.1615634228988471e+01 -9.1637569102068728e-01 0.0000000000000000e+00  1.1834958058828407e+01 -1.7692181960094822e+00 0.0000000000000000e+00  8.0918841021680432e+00 -3.2769870961883516e+00 0.0000000000000000e+00  8.7578919685929026e+00 -2.8913913271018981e+00 0.0000000000000000e+00  1.3124959877321707e+01 -4.3349078440941406e+00 0.0000000000000000e+00  8.7076708670805694e+00 -2.7543998162992112e+00 0.0000000000000000e+00  8.8807017521694913e+00 -4.3855884672590175e+00 0.0000000000000000e+00  1.1774695294888369e+01 -2.0951428005749693e-02 0.0000000000000000e+00  1.1090882624853471e+01 -7.5440933510830954e-01 0.0000000000000000e+00  5.0446933108438756e+00 -1.2357615549721666e+01 0.0000000000000000e+00  9.5884943946252985e+00 -2.9283251309895988e+00 0.0000000000000000e+00  8.8553062349029670e+00 -4.2692997317781707e+00 0.0000000000000000e+00  9.9621900670092796e+00 -2.1927358028824777e+00 0.0000000000000000e+00  9.0843021112691069e+00 -4.4994690769330470e+00 0.0000000000000000e+00  1.1290977694740429e+01 -3.9243989639841730e+00 0.0000000000000000e+00  1.1515794821414651e+01 -1.5575172534978048e+00 0.0000000000000000e+00  1.2150913501006118e+01 -1.1419238818863793e+00 0.0000000000000000e+00  1.1775549347181125e+01 -2.9020259265164134e-03 0.0000000000000000e+00  1.1550203007714432e+01 -2.7112901880343260e-01 0.0000000000000000e+00  1.2737509398603120e+01 -9.0493420083204412e-01 0.0000000000000000e+00  1.0027826691102874e+01 -1.9901927094216216e+00 0.0000000000000000e+00  1.2025878096537605e+01 -2.4339112361353719e+00 0.0000000000000000e+00  9.6816916916715847e+00 -4.2455450240184183e+00 0.0000000000000000e+00  1.2072639388462230e+01 -5.9775172209868312e+00 0.0000000000000000e+00  1.1988733339380151e+01 -3.0769044963087779e+00 0.0000000000000000e+00  1.0644770600013446e+01 -2.4093690241998389e+00 0.0000000000000000e+00  1.0187534222816282e+01 -3.4759134097613726e+00 0.0000000000000000e+00  1.0764823242406472e+01 -4.5706115900888760e+00 0.0000000000000000e+00  1.0813894917460358e+01 -3.6215837842851819e+00 0.0000000000000000e+00  1.1792935041989745e+01 -1.6475156624475108e-02 0.0000000000000000e+00  1.1832102385336848e+01 -4.5746177165046636e-01 0.0000000000000000e+00  1.1755777959984352e+01 -2.0311533967737119e-01 0.0000000000000000e+00  1.1945975635350466e+01 -2.6477051848025351e-01 0.0000000000000000e+00  7.4989172476240116e+00 -3.6486720110938951e+00 0.0000000000000000e+00  1.0689103855519297e+01 -3.6995829769894870e+00 0.0000000000000000e+00  1.0546036537974537e+01 -3.6837818272881822e+00 0.0000000000000000e+00  7.7111237628799429e+00 -3.2802361635809349e+00 0.0000000000000000e+00  9.9735684977418497e+00 -2.6331478081505026e+00 0.0000000000000000e+00  7.6952604865595831e+00 -3.5427615365100085e+00 0.0000000000000000e+00  1.1750456290557851e+01 -5.7468539340044247e-03 0.0000000000000000e+00  1.1734498688854687e+01 -1.9796474968937550e-02 0.0000000000000000e+00  6.5421482248290665e+00 -6.9745479303912008e+00 0.0000000000000000e+00  1.2129684044504126e+01 -2.7161664447682210e-01 0.0000000000000000e+00  1.2988964762387841e+01 -2.1158999066835302e+00 0.0000000000000000e+00  1.1832494875340897e+01 -3.7472576586408131e-02 0.0000000000000000e+00  1.2913208431019212e+01 -9.9076944103853748e-01 0.0000000000000000e+00  1.1940769305465359e+01 -1.1986740465703884e-01 0.0000000000000000e+00  1.2128999756888115e+01 -6.7346598536427205e-01 0.0000000000000000e+00  1.1492127871094846e+01 -3.5714732268143740e-01 0.0000000000000000e+00  1.0644047969742225e+01 -3.5605656156494270e+00 0.0000000000000000e+00  8.2198068270899540e+00 -8.7776475693090230e+00 0.0000000000000000e+00  1.0835547779068694e+01 -1.4017499257097250e+00 0.0000000000000000e+00  1.0252587032346325e+01 -3.3456754048751449e+00 0.0000000000000000e+00  1.0529216112395995e+01 -3.9135510432782210e+00 0.0000000000000000e+00  1.0215199600818126e+01 -3.3247758318699163e+00 0.0000000000000000e+00  8.1688188406567068e+00 -4.5321450521721269e+00 0.0000000000000000e+00  1.2281803305849069e+01 -1.2018981203566033e+00 0.0000000000000000e+00  1.0354874590473219e+01 -1.8788097788029585e+00 0.0000000000000000e+00  1.0485833724062637e+01 -1.4908194275785240e+00 0.0000000000000000e+00  1.1708913092532208e+01 -1.5613979783558452e-01 0.0000000000000000e+00  1.0828659684771409e+01 -3.3184370623119555e+00 0.0000000000000000e+00  9.6335819149874151e+00 -4.5984170227775660e+00 0.0000000000000000e+00  1.2373238495603434e+01 -1.1432104907477552e+00 0.0000000000000000e+00  1.2377510710740955e+01 -1.5941331303131518e+00 0.0000000000000000e+00  1.1712846892618010e+01 -2.8906367759180646e-01 0.0000000000000000e+00  1.1527814500048821e+01 -1.1266711493508836e+00 0.0000000000000000e+00  1.0920837158631823e+01 -1.0729017871528381e+00 0.0000000000000000e+00  1.0364943366037954e+01 -2.8834609506823545e+00 0.0000000000000000e+00  9.2550168444872263e+00 -3.4735745570804939e+00 0.0000000000000000e+00  9.3514987008221730e+00 -2.6781297882741426e+00 0.0000000000000000e+00  1.4028841944705906e+01 -1.9064888204045380e+00 0.0000000000000000e+00  1.1654869351955439e+01 -1.1946647259222432e-01 0.0000000000000000e+00  7.4536898115885295e+00 -3.5299085314103760e+00 0.0000000000000000e+00  7.9626323768107410e+00 -4.0965674530679186e+00 0.0000000000000000e+00  7.8595653956924725e+00 -3.4251529461876098e+00 0.0000000000000000e+00  1.4425889468444968e+01 -1.0292124904336738e+01 0.0000000000000000e+00  8.5331823440130261e+00 -2.7697387610565269e+00 0.0000000000000000e+00  1.4008131821419557e+01 -6.8412337524247278e+00 0.0000000000000000e+00  1.1748128853959029e+01 -4.1201456404740981e-02 0.0000000000000000e+00  1.5374326120050251e+01 -3.2176963443099158e+00 0.0000000000000000e+00  1.1699613327524428e+01 -5.7870326384574816e-02 0.0000000000000000e+00  1.9508189199110607e+01 -8.7000413392214657e+00 0.0000000000000000e+00  2.0485721224572384e+01 -1.3193840272431448e+01 0.0000000000000000e+00  8.4323642101438718e+00 -2.8356491814487286e+00 0.0000000000000000e+00  9.5537898324671797e+00 -3.3189083314648764e+00 0.0000000000000000e+00  1.0276228477579433e+01 -2.8355044440955344e+00 0.0000000000000000e+00  1.1589609547804388e+01 -2.2601530446303020e+00 0.0000000000000000e+00  9.8288690256527147e+00 -2.2837751435192706e+00 0.0000000000000000e+00  1.2407583737555898e+01 -1.1166308880304825e+00 0.0000000000000000e+00  1.3139210888969137e+01 -1.1733385849743481e+00 0.0000000000000000e+00  1.29446931358