<?xml version="1.0"?>
<VTKFile type="UnstructuredGrid"  version="0.1"  >
<UnstructuredGrid>
<Piece  NumberOfPoints="1981" NumberOfCells="3668">
<Points>
<DataArray  type="Float64"  NumberOfComponents="3"  format="ascii">-2 0.5 0  -2 0 0  -0.5 0 0  -0.4968561049466213 -0.05598223805165387 0  -0.4874639560909119 -0.1112604669781569 0  -0.4719416651541838 -0.1651395309775835 0  -0.4504844339512096 -0.216941869558779 0  -0.4233620996141421 -0.2660160382576682 0  -0.3909157412340148 -0.3117449009293669 0  -0.3535533905932738 -0.3535533905932737 0  -0.3117449009293669 -0.3909157412340148 0  -0.2660160382576683 -0.4233620996141421 0  -0.2169418695587791 -0.4504844339512095 0  -0.1651395309775836 -0.4719416651541837 0  -0.1112604669781573 -0.4874639560909118 0  -0.05598223805165402 -0.4968561049466213 0  -9.184850993605148e-17 -0.5 0  2 -0.5 0  2 0 0  0.5 0 0  0.4968561049466213 0.05598223805165393 0  0.4874639560909118 0.1112604669781572 0  0.4719416651541838 0.1651395309775835 0  0.4504844339512096 0.2169418695587791 0  0.4233620996141421 0.2660160382576683 0  0.3909157412340149 0.3117449009293667 0  0.3535533905932738 0.3535533905932737 0  0.3117449009293668 0.3909157412340149 0  0.2660160382576683 0.4233620996141421 0  0.2169418695587791 0.4504844339512096 0  0.1651395309775837 0.4719416651541837 0  0.1112604669781572 0.4874639560909118 0  0.05598223805165384 0.4968561049466213 0  3.061616997868383e-17 0.5 0  0.1398708344106534 0.05418624992807294 0  0.15 0 0  0.1398708344106534 -0.05418624992807295 0  0.1108513375830988 -0.1010543465469837 0  0.06686075336648065 -0.1342744937032594 0  0.01384025391949536 -0.1493601264442552 0  -0.04104944851081246 -0.1442738464759228 0  -0.09039519545688858 -0.1197025840920358 0  -0.1275325703594421 -0.07896482443160337 0  -0.1474459649525853 -0.02756242767248552 0  -0.1474459649525853 0.02756242767248555 0  -0.1275325703594421 0.07896482443160341 0  -0.09039519545688844 0.1197025840920359 0  -0.04104944851081243 0.1442738464759228 0  0.0138402539194953 0.1493601264442552 0  0.06686075336648074 0.1342744937032593 0  0.1108513375830989 0.1010543465469836 0  -1 0.5 0  1 -0.5 0  -1.25 0 0  -0.5 0.5 0  1.25 0 0  0.4999999999999999 -0.5 0  -1.5 0.5 0  1.5 -0.5 0  -0.875 0 0  0.875 0 0  -1.625 0 0  1.625 0 0  0.6875 -0.2500000000000001 0  -0.6875 0.25 0  -2 0.25 0  1.75 -0.5 0  0.2499999999999999 -0.5 0  -0.3583969912126916 0.25 0  0.3749999999999999 -0.25 0  -1.0625 0.21875 0  1.0625 -0.21875 0  -1.75 0.5 0  -1.25 0.5 0  -1.375 0.25 0  1.4375 -0.21875 0  2 -0.25 0  1.25 -0.5 0  1.7375 -0.2375 0  -1.7375 0.2375 0  0.75 -0.5 0  -0.75 0.5 0  -0.25 0.5 0  -0.1570377317087672 0.3153742794659282 0  0.1249999999999999 -0.3338777090152827 0  -0.8826650943396226 0.3263561320754717 0  0.8826650943396227 -0.3263561320754717 0  1.25 -0.1897321428571428 0  1.4375 0 0  -1.4375 0 0  1.0625 0 0  -1.0625 0 0  -0.6875 0 0  0.6875 0 0  1.8125 0 0  -1.8125 0 0  0.3263011380546194 -0.06940056902730968 0  -1.554017857142857 0.1790178571428572 0  0.08847100915780901 0.3109433440851622 0  -0.2412983234264066 -0.2156373655531345 0  -1.625 0.3744047619047619 0  1.625 -0.3744047619047619 0  0.2743272717766799 0.1698562554772697 0  -0.3279338175957848 0.06764246763930631 0  -1.863068181818182 0.3630681818181818 0  2 -0.375 0  1.875 -0.5 0  -0.05442366733490933 -0.3203147637646457 0  1.321986607142857 -0.3448660714285714 0  1.125 -0.5 0  -1.209821428571429 0.3236607142857143 0  -0.5229484956063458 0.1781011282952406 0  0.9067445847815293 -0.1625224987586892 0  -0.8335714777578845 0.1642411083184135 0  -1.237063437253354 0.1627182813733228 0  -0.4947697009489606 0.3378596801347012 0  0.53125 -0.171875 0  0.5156249999999999 -0.3359375 0  -2 0.125 0  1.873225308641975 -0.1497685185185185 0  0.2341337966231563 -0.1911191776024666 0  -0.625 0.5 0  1.587453076345555 -0.2288757784711196 0  1.8125 -0.3654761904761905 0  -0.3326862624810256 -0.08869875963335262 0  -0.375 0.5 0  1.174048204529175 -0.319244854540162 0  -1.067618031042359 0.3674567846760797 0  -0.96875 0.109375 0  1.481463366596639 -0.3565498074229692 0  1.023503306098383 -0.3576535124663073 0  -0.2265388519390893 0.1866542405407749 0  0.625 -0.5 0  -1.852445652173913 0.1432065217391304 0  -1.375 0.5 0  -1.479101577239454 0.3541992113802732 0  0.2708871299591885 -0.3541935649795943 0  1.520204106978579 -0.109375 0  0.78125 -0.1026731411563172 0  -0.3125 0.3785994323952442 0  0.3749999999999999 -0.5 0  1.141568346088435 -0.109375 0  1.358431653911565 -0.109375 0  1.668712727161379 -0.1246887081867154 0  -1.673050595238095 0.1226339285714286 0  -1.34375 0 0  -1.431523109243698 0.1313182773109244 0  -0.7546231943577876 0.3660317014105531 0  -0.6233296454587935 0.3645528204344609 0  0.7546231943577878 -0.3660317014105531 0  0.6537002726710706 -0.125 0  -0.6441338591766993 0.125 0  1.375 -0.5 0  -2 0.375 0  -1.875 0.5 0  1.625 -0.5 0  -1.625 0.5 0  0.875 -0.5 0  -0.875 0.5 0  0.1249999999999999 -0.5 0  -0.125 0.5 0  2 -0.125 0  -1.125 0.5 0  -1.354082022940739 0.375 0  -0.03500388138134332 0.2732363193989585 0  0.3955099577726473 -0.3752808566622692 0  0.3596026196703111 0.0631070919012526 0  -0.0625 0.394061918116807 0  0.6342080192637126 -0.3582597885274255 0  -1.123666900137815 0.109375 0  -1.744588744588745 0.3803841991341991 0  0.2210084381421171 0.2925777566973838 0  0.8072251313743133 -0.2315819627814412 0  -0.1814335426834733 -0.3282792760620681 0  -0.9356634513979559 0.2218154628239019 0  0.4183753556420685 -0.1414382112841371 0  -0.1238894550978499 -0.2292394949250368 0  0.96875 0 0  1.013652292192466 -0.1102204462032291 0  -0.4393328341626322 0.09834605222123384 0  1.882206434331873 -0.2686982850037661 0  0.1426699461850768 0.2146575767791519 0  -1.886304127069339 0.251758104550396 0  0.2495743011762567 0.06264742837969955 0  -0.78125 0 0  0.04042933102838756 -0.2590839715717854 0  -1.53125 0 0  -0.5823692714154002 0.2663576540687616 0  -0.2594008044921133 0.2871583817002197 0  -0.9375 0.4157678007976423 0  0.9696186653311423 -0.2675997292662616 0  -0.7942971416386473 0.2646257048857303 0  0.06249999999999992 -0.4169388545076413 0  0.1874999999999999 -0.4169388545076413 0  -1.562839467699977 0.2864000626355251 0  -0.1875 0.4157529178973974 0  -0.1223698320396133 0.2179970721626365 0  1.770639498024741 -0.1399156735731578 0  0.9367002721196375 -0.4157324987180338 0  -1.90625 0 0  -0.2298618769854927 -0.08904896555277285 0  0.1397131066802196 -0.232031643549068 0  -0.4375 0.420861596936145 0  -0.3483554784186823 -0.1925292675214375 0  0.59375 0 0  -1.327632151430252 0.1057660692693074 0  -0.9830051201906395 0.3115204496273563 0  1.90625 0 0  1.236354269160391 -0.3993990952861421 0  -1.1875 0.4214935578661845 0  0.5625 -0.4247705455161483 0  -0.7349377422908023 0.1635199768201956 0  -1.583328550170068 0.08705835459183674 0  -1.640104497493491 0.2259991665335075 0  -1.467109316827997 0.2210671404637805 0  0.5896070530325394 -0.2690578560650788 0  0.3266472067106532 -0.167734762534917 0  -0.59375 0 0  -0.546875 0.08448914438556519 0  1.71875 0 0  1.156078290691277 -0.2031315651260504 0  1.337704613095238 -0.2433035714285714 0  1.236312294597949 -0.09486607142857142 0  0.1642123379155914 0.3701207892454864 0  0.2345507206108115 -0.04384512844718241 0  -0.4048861533022036 -0.02273791864794379 0  0.03798857341016919 0.3979165301900267 0  -0.4006523628802168 0.334179001454817 0  -0.1135990210174155 -0.393340785880617 0  1.906775738056482 -0.3598876272511091 0  1.720393990929705 -0.4044642857142857 0  -1.71875 0 0  1.15625 0 0  0.78125 0 0  1.53125 0 0  -0.96875 0 0  1.34375 0 0  -1.15625 0 0  1.142828909845958 -0.4078056758504979 0  0.40697192225457 -0.01923608979840619 0  -1.767708120728825 0.08966855818957545 0  -0.6882384924227143 0.4308047125515967 0  -0.3636785153797087 0.1553944795036722 0  -0.2291274285977749 0.08616080495998404 0  -0.281012338688557 -0.01202669255906096 0  0.3108677056378212 0.2586754570559801 0  -1.151751953043632 0.196872287087452 0  -0.5625 0.4330368698813529 0  0.6875 -0.4328910527173583 0  1.405021000845949 -0.3057191080886871 0  0.546875 -0.08025568181818182 0  0.3713523302229579 0.1599284134935842 0  -1.12196127795563 0.2911449911382941 0  -1.276991293863022 0.2522534749828799 0  1.255195006158927 -0.2798057638555942 0  -0.8388532729558951 0.4114132763440825 0  0.8388532729558953 -0.4114132763440825 0  -0.4557763550657601 0.2486174768248819 0  0.2049883534781638 -0.2934473685517857 0  0.3226059585583683 -0.4273378498573185 0  -1.426982449282418 0.4270508114904024 0  1.397702183984896 -0.4056170514003312 0  0.05467855045156804 0.2285245978493705 0  -0.272823163096586 -0.3046204408381326 0  -0.02656096412551515 -0.4126877256833236 0  -1.807235369718798 0.2933328120993839 0  0.1906985117418444 0.1399478964461678 0  -1.688085622354259 0.3115694793217502 0  1.659329587961023 -0.2879395206246994 0  -1.5625 0.437202380952381 0  1.546313524296827 -0.4210926184041992 0  -1.813279560389256 0.4363923695021056 0  -1.926524548924358 0.4265245489243581 0  -0.1751061200004134 -0.1578066000831913 0  0.2891187728554643 -0.268298186700636 0  0.4721679687499999 -0.2490234375 0  0.7276683718449491 -0.1720688736051095 0  0.4744973194747868 -0.4152356216385488 0  0.9322020604693165 -0.07914563824612769 0  -1.275602471792197 0.4154857864535745 0  -0.828125 0.07552171441918698 0  1.3125 -0.5 0  -1.931646474339171 0.178059096704675 0  -0.7167268019830385 0.08016211756451477 0  1.060414578698922 -0.4368616551407768 0  -1.6875 0.5 0  1.9375 -0.5 0  1.739833210773432 -0.3220974693894793 0  -2 0.3125 0  -1.207440692409131 0.07848980221212992 0  -0.04055821595704934 -0.2377097412335854 0  0.1922531441870086 -0.1190381071624572 0  1.509237778147088 -0.2717758217431455 0  0.8901922386429052 -0.2437760747352658 0  -1.498530569603453 0.07867879855510211 0  0.9849923856958628 -0.1870513965806273 0  1.515605916195201 -0.1906351698786736 0  1.439317880445072 -0.08458133750179306 0  1.932491348856277 -0.2050969650933771 0  1.828075655121533 -0.08087981225769847 0  1
[...]
<PointData  Vectors="f_39"> 
<DataArray  type="Float64"  Name="f_39"  NumberOfComponents="3" format="ascii">2.3970059638899706e+01 -4.7076119412603118e-01 0.0000000000000000e+00  4.1804262918178348e-03 -1.0984823138491503e-01 0.0000000000000000e+00  1.4724784069981375e+01 -5.2025554552615665e+00 0.0000000000000000e+00  1.3817169736786742e+01 -5.5830572701147370e+00 0.0000000000000000e+00  1.3539852857671267e+01 -5.1483713532515631e+00 0.0000000000000000e+00  1.4265194473130327e+01 -4.6576666645933251e+00 0.0000000000000000e+00  1.4708291710014416e+01 -4.9298765920680383e+00 0.0000000000000000e+00  1.4668615978785468e+01 -5.5561111050394647e+00 0.0000000000000000e+00  1.4615415319206384e+01 -5.8594446889353460e+00 0.0000000000000000e+00  1.4413567778312016e+01 -6.0132169426838784e+00 0.0000000000000000e+00  1.3949722811374896e+01 -6.1671454989799797e+00 0.0000000000000000e+00  1.3782913174953594e+01 -6.0941623199823729e+00 0.0000000000000000e+00  1.3653904958055014e+01 -6.0606514187440883e+00 0.0000000000000000e+00  1.3511886228164233e+01 -5.9732943943286436e+00 0.0000000000000000e+00  1.3449871724798209e+01 -5.9334527071349354e+00 0.0000000000000000e+00  1.3283473807960915e+01 -5.7973644023870552e+00 0.0000000000000000e+00  1.3189216294589651e+01 -5.6160464961408731e+00 0.0000000000000000e+00  1.4565412796301864e+01 -3.9364415440758006e-03 0.0000000000000000e+00  1.4708061815792798e+01 -5.1743363126042202e-03 0.0000000000000000e+00  1.4335929352588300e+01 -5.4185409750596243e+00 0.0000000000000000e+00  1.3942852941374342e+01 -5.5329743369824138e+00 0.0000000000000000e+00  1.3827714656693514e+01 -5.2568521976972864e+00 0.0000000000000000e+00  1.3999602650708383e+01 -5.2368581084045900e+00 0.0000000000000000e+00  1.4392242183517940e+01 -5.3454005858648586e+00 0.0000000000000000e+00  1.4489136955424360e+01 -5.8023427069515368e+00 0.0000000000000000e+00  1.4170013597877778e+01 -6.1136383925179798e+00 0.0000000000000000e+00  1.4012816349018058e+01 -6.2372428522231607e+00 0.0000000000000000e+00  1.3771343414679587e+01 -6.2951891302255554e+00 0.0000000000000000e+00  1.3569211707522848e+01 -6.3312319205025647e+00 0.0000000000000000e+00  1.3297377810505418e+01 -6.1410829358704246e+00 0.0000000000000000e+00  1.3161662641116196e+01 -5.9977459774781181e+00 0.0000000000000000e+00  1.3048294916185691e+01 -5.8338869094369636e+00 0.0000000000000000e+00  1.3011542630832668e+01 -5.7491585826023570e+00 0.0000000000000000e+00  1.2948808330292371e+01 -5.5011220180823015e+00 0.0000000000000000e+00  1.3298965965928812e+01 -5.8498664234327435e+00 0.0000000000000000e+00  1.3047609581276950e+01 -5.2539132742071528e+00 0.0000000000000000e+00  1.3280041208751413e+01 -4.6546793229660572e+00 0.0000000000000000e+00  1.3712468376084251e+01 -4.5197778470730103e+00 0.0000000000000000e+00  1.4063510196808139e+01 -4.9706414778946328e+00 0.0000000000000000e+00  1.4076362051717890e+01 -5.4091971828392209e+00 0.0000000000000000e+00  1.3835451460288006e+01 -5.5532289411577951e+00 0.0000000000000000e+00  1.3813070737557211e+01 -5.5594371518134453e+00 0.0000000000000000e+00  1.3743615979191505e+01 -5.4800699812076772e+00 0.0000000000000000e+00  1.3639267374361726e+01 -5.2957320206168701e+00 0.0000000000000000e+00  1.3614153617778321e+01 -5.1732277186418463e+00 0.0000000000000000e+00  1.3529513232225588e+01 -4.9799454631066347e+00 0.0000000000000000e+00  1.3594117212087385e+01 -4.8649448062140550e+00 0.0000000000000000e+00  1.3847118191985533e+01 -4.9031724339972449e+00 0.0000000000000000e+00  1.4051731765843661e+01 -5.4238166232746226e+00 0.0000000000000000e+00  1.4035548440186012e+01 -5.6135016797077606e+00 0.0000000000000000e+00  1.3595258734610448e+01 -6.0533893369435603e+00 0.0000000000000000e+00  1.5472940694211719e+01 -2.3087003612954526e+00 0.0000000000000000e+00  1.3623043107071222e+01 -1.4706742227014831e+00 0.0000000000000000e+00  1.3058963711973561e+01 -3.3881840926751359e+00 0.0000000000000000e+00  1.3157514153578381e+01 -3.7069198868097177e+00 0.0000000000000000e+00  1.5205994074168233e+01 -6.7359691039042591e-01 0.0000000000000000e+00  1.2838703575468582e+01 -3.6776618262829506e+00 0.0000000000000000e+00  2.1524578401927354e+01 -7.8241131550699352e+00 0.0000000000000000e+00  1.4366072876137990e+01 -2.1274384244709649e-01 0.0000000000000000e+00  1.5326096517310850e+01 -3.6576716527365551e+00 0.0000000000000000e+00  1.5629808956398792e+01 -2.8067576140319987e+00 0.0000000000000000e+00  7.2709421890571884e+00 -1.2781912887355260e+01 0.0000000000000000e+00  1.4803351684896564e+01 -1.2642135526963219e-01 0.0000000000000000e+00  1.4072815583407690e+01 -3.2392470699503075e+00 0.0000000000000000e+00  1.4391109025696110e+01 -3.4875266365982447e+00 0.0000000000000000e+00  1.3516715649425752e+01 -3.5529060600047280e-01 0.0000000000000000e+00  1.4520864183914926e+01 -5.8388546743147890e-02 0.0000000000000000e+00  1.2812124831758185e+01 -4.9498211439387445e+00 0.0000000000000000e+00  1.3700265697429550e+01 -4.4649747232474590e+00 0.0000000000000000e+00  1.3561637590917460e+01 -4.4694523131997146e+00 0.0000000000000000e+00  1.5135973940511061e+01 -3.4140922387632608e+00 0.0000000000000000e+00  1.4663911132802289e+01 -1.4960098294162876e+00 0.0000000000000000e+00  2.6091459396702433e+01 -1.6150075648610766e+01 0.0000000000000000e+00  1.7671444011308800e+01 -3.3111881530968454e+00 0.0000000000000000e+00  1.5376547816271632e+01 -6.6304496734023113e+00 0.0000000000000000e+00  1.4692566913835972e+01 -4.1051333955232544e-01 0.0000000000000000e+00  1.4633078646930244e+01 -9.9033704678738975e-03 0.0000000000000000e+00  1.4052321942102907e+01 -6.2954256513762263e-01 0.0000000000000000e+00  1.4639416386072188e+01 -1.2107498281880677e-01 0.0000000000000000e+00  1.5175017987011799e+01 -1.8096915467808781e+01 0.0000000000000000e+00  1.3146055746931092e+01 -2.6238471323526658e+00 0.0000000000000000e+00  1.4000714168437849e+01 -2.5330314174315953e+00 0.0000000000000000e+00  1.2921392761268514e+01 -4.4792057297701184e+00 0.0000000000000000e+00  1.3337475746740251e+01 -4.8668621330852675e+00 0.0000000000000000e+00  1.3383833437816632e+01 -5.1363450975094178e+00 0.0000000000000000e+00  1.4838882769643856e+01 -2.9107178538991527e+00 0.0000000000000000e+00  1.4023788186397258e+01 -2.1590279993303807e+00 0.0000000000000000e+00  1.4739610575558890e+01 -8.2547775290429815e-01 0.0000000000000000e+00  1.4977689371219505e+01 -3.0435258626573453e-01 0.0000000000000000e+00  1.0404806985286086e+01 -6.1079446880563486e+00 0.0000000000000000e+00  1.5623836900398677e+01 -1.3018614066263245e+00 0.0000000000000000e+00  1.4891312921283163e+01 -2.7572068332647737e+00 0.0000000000000000e+00  1.4487246783457676e+01 -3.9231596170133116e+00 0.0000000000000000e+00  1.4766700335911665e+01 -3.5347288832324701e+00 0.0000000000000000e+00  1.4730794591203082e+01 -3.9207438720481755e-02 0.0000000000000000e+00  7.1643605547689635e+00 -1.9759223024913243e+01 0.0000000000000000e+00  1.3761250396078667e+01 -4.9826220161352870e+00 0.0000000000000000e+00  1.3257737600015989e+01 -1.0768075101574635e+01 0.0000000000000000e+00  1.3545209342882027e+01 -5.6628136982871231e+00 0.0000000000000000e+00  1.4009002074542877e+01 -5.6032052550205336e+00 0.0000000000000000e+00  1.9888356788828343e+01 -1.2923028085256561e+01 0.0000000000000000e+00  1.4535116289522632e+01 -1.8489799115333960e-01 0.0000000000000000e+00  1.3823173737292889e+01 -5.6834917943847714e+00 0.0000000000000000e+00  1.3920900177922990e+01 -4.9589279837861051e+00 0.0000000000000000e+00  2.1422213537445220e+01 -2.5135827281767025e+01 0.0000000000000000e+00  1.4586572463315592e+01 -1.0026251660285890e-02 0.0000000000000000e+00  1.4553770255488821e+01 -2.8801856110021205e-02 0.0000000000000000e+00  1.3631156296499363e+01 -5.5909729059805340e+00 0.0000000000000000e+00  1.4420358352533633e+01 -5.9180699882092236e-01 0.0000000000000000e+00  1.3843468791388204e+01 -9.9049999654412768e-01 0.0000000000000000e+00  1.5992299510888476e+01 -4.1485722190822694e+00 0.0000000000000000e+00  1.4311181130733631e+01 -4.1161422133887990e+00 0.0000000000000000e+00  1.4857240487903137e+01 -2.3243216859564986e+00 0.0000000000000000e+00  1.4853520965021861e+01 -3.4314934065792095e+00 0.0000000000000000e+00  1.4494338478311242e+01 -4.4889805221700358e+00 0.0000000000000000e+00  1.3681908490857642e+01 -3.8624485264124111e+00 0.0000000000000000e+00  1.4206734009136030e+01 -3.9967347187908162e+00 0.0000000000000000e+00  1.3392890979987669e+01 -3.8536065696086066e+00 0.0000000000000000e+00  7.1586673363063680e+00 -2.0507205887206750e-01 0.0000000000000000e+00  1.4678273095414745e+01 -4.6025766092297991e-02 0.0000000000000000e+00  1.3575901575808238e+01 -4.7958741530216358e+00 0.0000000000000000e+00  1.3441972892464507e+01 -3.0750171578831083e+00 0.0000000000000000e+00  1.4655428638490184e+01 -2.2615100778232505e-01 0.0000000000000000e+00  1.4576333958992874e+01 -6.5629077392122134e-02 0.0000000000000000e+00  1.3999063739442065e+01 -5.2469860658900069e+00 0.0000000000000000e+00  1.3041517717377909e+01 -4.1360227564801848e+00 0.0000000000000000e+00  1.4352327655213418e+01 -1.0247631065692329e+00 0.0000000000000000e+00  1.5628275349340036e+01 -3.0808796763834048e+00 0.0000000000000000e+00  1.5070914786598427e+01 -3.2474197370706492e+00 0.0000000000000000e+00  1.4484418300428946e+01 -3.2902347252662056e-01 0.0000000000000000e+00  1.4102541513784093e+01 -1.5090017563637597e+00 0.0000000000000000e+00  1.3623168573186414e+01 -4.8355320143333849e+00 0.0000000000000000e+00  1.2961580533528213e+01 -3.1668628180661527e+00 0.0000000000000000e+00  1.0256901578441086e+01 -2.1986777376530156e+01 0.0000000000000000e+00  1.9454855510066594e+01 -4.8698605898947775e+00 0.0000000000000000e+00  1.8307037042429755e+01 -8.5031690502200519e+00 0.0000000000000000e+00  1.3229689026806822e+01 -4.7410548142085025e+00 0.0000000000000000e+00  1.4784109241893216e+01 -2.6533283112120687e-01 0.0000000000000000e+00  1.4860161231652702e+01 -3.0533559594200175e+00 0.0000000000000000e+00  1.3307063024169409e+01 -4.4336629230862075e+00 0.0000000000000000e+00  1.2699401503692679e+01 -4.3389262094090180e+00 0.0000000000000000e+00  1.5098956097266724e+01 -1.1155524979468388e+00 0.0000000000000000e+00  1.4912070000146326e+01 -5.2811171082867414e-01 0.0000000000000000e+00  1.4720441124259199e+01 -1.5038119983786824e-01 0.0000000000000000e+00  1.1129760773345792e+01 -1.5277631921920934e+01 0.0000000000000000e+00  1.1662908112721711e+01 -4.7958412520722726e+00 0.0000000000000000e+00  1.2559598092669168e+01 -7.3780153644976609e+00 0.0000000000000000e+00  1.4280137875865561e+01 -2.9580624116517615e+00 0.0000000000000000e+00  1.3870193726876003e+01 -3.4050616181658309e+00 0.0000000000000000e+00  1.3629095643646895e+01 -2.7489412276993752e+00 0.0000000000000000e+00  1.4500336059551806e+01 -3.4874923063143681e+00 0.0000000000000000e+00  1.4604306674545267e+01 -3.7622159599753338e+00 0.0000000000000000e+00  1.4211454772503975e+01 -4.0794825358354603e-01 0.0000000000000000e+00  1.9137077073439485e+01 -4.5758646482167242e-01 0.0000000000000000e+00  2.8372337439358606e+01 -2.5944498499803551e+01 0.0000000000000000e+00  1.4452825187633881e+01 -1.2895287695374394e-01 0.0000000000000000e+00  2.3554799891788885e+01 -1.1604023181235307e+01 0.0000000000000000e+00  1.3348320245245128e+01 -1.9161330706953079e+00 0.0000000000000000e+00  1.4727715850549711e+01 -2.2061216183030439e+00 0.0000000000000000e+00  1.2996202704924238e+01 -5.3662599657235095e+00 0.0000000000000000e+00  1.2808723893486071e+01 -5.0632965199184827e+00 0.0000000000000000e+00  1.4676094176261900e+01 -9.7177012138214541e-03 0.0000000000000000e+00  1.6488509689500347e+01 -2.6425682178499543e+00 0.0000000000000000e+00  1.7640774957776248e+01 -5.7002475449317318e+00 0.0000000000000000e+00  1.3550534279033766e+01 -5.2213002437419993e+00 0.0000000000000000e+00  1.3160062092396194e+01 -4.2739690411706857e+00 0.0000000000000000e+00  1.3879447346565769e+01 -5.3696058123909864e+00 0.0000000000000000e+00  1.3183854985931504e+01 -5.2342500426016878e+00 0.0000000000000000e+00  1.3540965498979185e+01 -3.2565360759380648e+00 0.0000000000000000e+00  1.4586652651606748e+01 -3.3598641340393289e+00 0.0000000000000000e+00  2.1528885242795017e+01 -1.7895916845307877e+01 0.0000000000000000e+00  1.3689456974466051e+01 -5.9342662355086810e+00 0.0000000000000000e+00  1.4377591564928823e+01 -2.6656264539167496e+00 0.0000000000000000e+00  1.3805335487088961e+01 -5.8017877198753629e+00 0.0000000000000000e+00  1.4981727222914701e+01 -3.2545504948830826e+00 0.0000000000000000e+00  1.3990772935827037e+01 -4.6104167699414749e+00 0.0000000000000000e+00  1.3818886620455224e+01 -5.5947029698893349e+00 0.0000000000000000e+00  1.5780469968086598e+01 -2.1508973696023128e+00 0.0000000000000000e+00  1.5229775230088107e+01 -1.7244547978323017e+00 0.0000000000000000e+00  1.4307855026545447e+01 -4.7264444330163702e+00 0.0000000000000000e+00  1.4626289421864406e+01 -4.8298818458995349e-02 0.0000000000000000e+00  1.3752997092734024e+01 -5.7659727887685168e+00 0.0000000000000000e+00  1.4694256006323513e+01 -2.4572315647179593e+01 0.0000000000000000e+00  1.3538459041490672e+01 -5.5004004774263811e+00 0.0000000000000000e+00  1.4929338313929302e+01 -4.0088448944217339e+00 0.0000000000000000e+00  1.3694658576160226e+01 -5.2933923197817627e+00 0.0000000000000000e+00  8.6022486376896765e+00 -8.7567101291951435e+00 0.0000000000000000e+00  1.4091089003910284e+01 -3.7873717772157427e+00 0.0000000000000000e+00  1.3480805044865475e+01 -4.6576615872090841e+00 0.0000000000000000e+00  1.5138890973400549e+01 -2.5151533250701572e+00 0.0000000000000000e+00  1.4410252813726249e+01 -1.8708384012313799e+00 0.0000000000000000e+00  1.4624232435925666e+01 -3.2654421450198177e+00 0.0000000000000000e+00  1.3262081484097537e+01 -5.4362113773962975e+00 0.0000000000000000e+00  1.3047723983676324e+01 -5.0742361340683999e+00 0.0000000000000000e+00  1.6711298401546102e+01 -1.1244438433092634e+01 0.0000000000000000e+00  1.3046400261834977e+01 -4.8126230200252795e+00 0.0000000000000000e+00  1.3570007395660783e+01 -4.9183059719239859e+00 0.0000000000000000e+00  1.4695355360394631e+01 -9.2258936238393222e-02 0.0000000000000000e+00  1.3662883218942911e+01 -1.7721596932249395e+00 0.0000000000000000e+00  6.5930816862340640e+00 -2.1505030537684199e+01 0.0000000000000000e+00  1.3829401438402076e+01 -5.3612971407748979e+00 0.0000000000000000e+00  1.3650959901126454e+01 -5.0131107840491822e+00 0.0000000000000000e+00  1.3292308195244200e+01 -3.9609220339608942e+00 0.0000000000000000e+00  1.4242266971002408e+01 -5.3445520535415350e+00 0.0000000000000000e+00  1.4994718360306344e+01 -3.5759708967938870e+00 0.0000000000000000e+00  1.3073859963780059e+01 -5.2569663098698811e+00 0.0000000000000000e+00  1.5149250024375911e+01 -3.0447226696175864e+00 0.0000000000000000e+00  1.4708154045159910e+01 -1.8510458318851283e-02 0.0000000000000000e+00  1.4185770956377713e+01 -8.0310085834772194e-01 0.0000000000000000e+00  1.6693907120427841e+01 -3.3273871659485157e+00 0.0000000000000000e+00  1.3105176591104250e+01 -3.5348831713908124e+00 0.0000000000000000e+00  1.4611537785931025e+01 -3.5908353060606260e+00 0.0000000000000000e+00  1.0294430753272483e+01 -1.1524944973684727e+01 0.0000000000000000e+00  1.4677689208430683e+01 -1.4046221999752495e+01 0.0000000000000000e+00  1.4499970064695944e+01 -8.6529842199004339e+00 0.0000000000000000e+00  1.3840659566027881e+01 -3.6171233642210781e+00 0.0000000000000000e+00  1.3706543985379911e+01 -4.7174872426506500e+00 0.0000000000000000e+00  1.5169187886771697e+01 -3.6659255494851464e+00 0.0000000000000000e+00  1.4865652862693713e+01 -4.1657344040653337e+00 0.0000000000000000e+00  1.4764096470855174e+01 -8.8226386751928426e-02 0.0000000000000000e+00  1.4756914258124551e+01 -1.1417590447936121e+00 0.0000000000000000e+00  1.4621251737817870e+01 -6.0997587499238359e-01 0.0000000000000000e+00  1.5027869606443316e+01 -7.9623693289849440e-01 0.0000000000000000e+00  1.3425021102544681e+01 -5.9174030574042877e+00 0.0000000000000000e+00  1.3450823027517322e+01 -4.9453285081764964e+00 0.0000000000000000e+00  1.4059497063674380e+01 -5.2806669978781704e+00 0.0000000000000000e+00  1.3214210145476146e+01 -5.5018994437327100e+00 0.0000000000000000e+00  1.3536365805910540e+01 -4.2439751682406275e+00 0.0000000000000000e+00  1.3560634544900200e+01 -5.7726851344845667e+00 0.0000000000000000e+00  1.4593579183913958e+01 -2.9132698654346999e-02 0.0000000000000000e+00  1.4543591510240265e+01 -9.4200688436079691e-02 0.0000000000000000e+00  7.1411126861479612e+00 -1.6737447765672329e+01 0.0000000000000000e+00  1.5379175617771189e+01 -9.0092987353343945e-01 0.0000000000000000e+00  1.5280207228885022e+01 -3.3507681213397369e+00 0.0000000000000000e+00  1.4865622164332860e+01 -1.8523279327798325e-01 0.0000000000000000e+00  1.5316584558937825e+01 -3.0703640780362127e+00 0.0000000000000000e+00  1.5094629534933745e+01 -4.7677282129816445e-01 0.0000000000000000e+00  1.4036809550071514e+01 -2.8256835622506791e+00 0.0000000000000000e+00  1.4100805239792756e+01 -9.9940310061045345e-01 0.0000000000000000e+00  1.4153699650581963e+01 -5.1596976072565814e+00 0.0000000000000000e+00  9.4760002653668387e+00 -1.8300500547055290e+01 0.0000000000000000e+00  1.3835459284750437e+01 -2.9195045083329361e+00 0.0000000000000000e+00  1.3928179472761979e+01 -4.6878646715241059e+00 0.0000000000000000e+00  1.3679026494163189e+01 -4.9930715754655850e+00 0.0000000000000000e+00  1.3866592138822815e+01 -5.2025210578124259e+00 0.0000000000000000e+00  1.4028006254994153e+01 -5.9398554720020700e+00 0.0000000000000000e+00  1.4945429058352317e+01 -3.8840047763744474e+00 0.0000000000000000e+00  1.3487932073314848e+01 -3.4594253794465155e+00 0.0000000000000000e+00  1.3297964724638092e+01 -2.8840800514537492e+00 0.0000000000000000e+00  1.4503430178559766e+01 -4.9589447855950536e-01 0.0000000000000000e+00  1.4702978113953421e+01 -4.2110855118771582e+00 0.0000000000000000e+00  1.3997768563285685e+01 -5.4845672127170566e+00 0.0000000000000000e+00  1.5453891415813514e+01 -3.6111680205611218e+00 0.0000000000000000e+00  1.5349116841805536e+01 -5.1131384578149675e+00 0.0000000000000000e+00  1.4528012453099954e+01 -8.0510473847596797e-01 0.0000000000000000e+00  1.4541201974407306e+01 -2.6518324359296632e+00 0.0000000000000000e+00  1.3561453495475702e+01 -2.2221271408149912e+00 0.0000000000000000e+00  1.3909264345771806e+01 -4.2528742940367197e+00 0.0000000000000000e+00  1.3415825441991494e+01 -4.8728064231028343e+00 0.0000000000000000e+00  1.2949316090301412e+01 -4.6122271357305200e+00 0.0000000000000000e+00  1.9281014242377719e+01 -6.4900764190850584e+00 0.0000000000000000e+00  1.4352623558042383e+01 -4.2168937082023267e-01 0.0000000000000000e+00  1.3801737385130693e+01 -5.5407225064386765e+00 0.0000000000000000e+00  1.4071213959043078e+01 -5.8498232347337895e+00 0.0000000000000000e+00  1.3370404598720107e+01 -5.6047289820106894e+00 0.0000000000000000e+00  1.7337664730510269e+01 -2.0966635489309606e+01 0.0000000000000000e+00  1.3694956684581959e+01 -5.7996336507187651e+00 0.0000000000000000e+00  1.7748069309969384e+01 -1.5767108292886329e+01 0.0000000000000000e+00  1.4596773529595369e+01 -1.6341692014987103e-01 0.0000000000000000e+00  2.1326585309973634e+01 -9.7710360162787691e+00 0.0000000000000000e+00  1.4449734842190558e+01 -2.3100197045495738e-01 0.0000000000000000e+00  2.5349333313941145e+01 -2.0970949610229837e+01 0.0000000000000000e+00  2.3324275811083989e+01 -2.7803500089338073e+01 0.0000000000000000e+00  1.3847217255193561e+01 -5.5325316128820496e+00 0.0000000000000000e+00  1.3404826476076243e+01 -4.7006792050954536e+00 0.0000000000000000e+00  1.3700888878746467e+01 -4.1483209672451222e+00 0.0000000000000000e+00  1.4459193601761646e+01 -3.1977877192186357e+00 0.0000000000000000e+00  1.3073240313652340e+01 -3.8804623564232492e+00 0.0000000000000000e+00  1.5397320368433524e+01 -2.3371093758127577e+00 0.0000000000000000e+00  1.7564804623906682e+01 -4.2353461960903305e+00 0.0000000000000000e+00  1.5042182418