<?xml version="1.0"?>
<VTKFile type="UnstructuredGrid"  version="0.1"  >
<UnstructuredGrid>
<Piece  NumberOfPoints="1981" NumberOfCells="3668">
<Points>
<DataArray  type="Float64"  NumberOfComponents="3"  format="ascii">-2 0.5 0  -2 0 0  -0.5 0 0  -0.4968561049466213 -0.05598223805165387 0  -0.4874639560909119 -0.1112604669781569 0  -0.4719416651541838 -0.1651395309775835 0  -0.4504844339512096 -0.216941869558779 0  -0.4233620996141421 -0.2660160382576682 0  -0.3909157412340148 -0.3117449009293669 0  -0.3535533905932738 -0.3535533905932737 0  -0.3117449009293669 -0.3909157412340148 0  -0.2660160382576683 -0.4233620996141421 0  -0.2169418695587791 -0.4504844339512095 0  -0.1651395309775836 -0.4719416651541837 0  -0.1112604669781573 -0.4874639560909118 0  -0.05598223805165402 -0.4968561049466213 0  -9.184850993605148e-17 -0.5 0  2 -0.5 0  2 0 0  0.5 0 0  0.4968561049466213 0.05598223805165393 0  0.4874639560909118 0.1112604669781572 0  0.4719416651541838 0.1651395309775835 0  0.4504844339512096 0.2169418695587791 0  0.4233620996141421 0.2660160382576683 0  0.3909157412340149 0.3117449009293667 0  0.3535533905932738 0.3535533905932737 0  0.3117449009293668 0.3909157412340149 0  0.2660160382576683 0.4233620996141421 0  0.2169418695587791 0.4504844339512096 0  0.1651395309775837 0.4719416651541837 0  0.1112604669781572 0.4874639560909118 0  0.05598223805165384 0.4968561049466213 0  3.061616997868383e-17 0.5 0  0.1398708344106534 0.05418624992807294 0  0.15 0 0  0.1398708344106534 -0.05418624992807295 0  0.1108513375830988 -0.1010543465469837 0  0.06686075336648065 -0.1342744937032594 0  0.01384025391949536 -0.1493601264442552 0  -0.04104944851081246 -0.1442738464759228 0  -0.09039519545688858 -0.1197025840920358 0  -0.1275325703594421 -0.07896482443160337 0  -0.1474459649525853 -0.02756242767248552 0  -0.1474459649525853 0.02756242767248555 0  -0.1275325703594421 0.07896482443160341 0  -0.09039519545688844 0.1197025840920359 0  -0.04104944851081243 0.1442738464759228 0  0.0138402539194953 0.1493601264442552 0  0.06686075336648074 0.1342744937032593 0  0.1108513375830989 0.1010543465469836 0  -1 0.5 0  1 -0.5 0  -1.25 0 0  -0.5 0.5 0  1.25 0 0  0.4999999999999999 -0.5 0  -1.5 0.5 0  1.5 -0.5 0  -0.875 0 0  0.875 0 0  -1.625 0 0  1.625 0 0  0.6875 -0.2500000000000001 0  -0.6875 0.25 0  -2 0.25 0  1.75 -0.5 0  0.2499999999999999 -0.5 0  -0.3583969912126916 0.25 0  0.3749999999999999 -0.25 0  -1.0625 0.21875 0  1.0625 -0.21875 0  -1.75 0.5 0  -1.25 0.5 0  -1.375 0.25 0  1.4375 -0.21875 0  2 -0.25 0  1.25 -0.5 0  1.7375 -0.2375 0  -1.7375 0.2375 0  0.75 -0.5 0  -0.75 0.5 0  -0.25 0.5 0  -0.1570377317087672 0.3153742794659282 0  0.1249999999999999 -0.3338777090152827 0  -0.8826650943396226 0.3263561320754717 0  0.8826650943396227 -0.3263561320754717 0  1.25 -0.1897321428571428 0  1.4375 0 0  -1.4375 0 0  1.0625 0 0  -1.0625 0 0  -0.6875 0 0  0.6875 0 0  1.8125 0 0  -1.8125 0 0  0.3263011380546194 -0.06940056902730968 0  -1.554017857142857 0.1790178571428572 0  0.08847100915780901 0.3109433440851622 0  -0.2412983234264066 -0.2156373655531345 0  -1.625 0.3744047619047619 0  1.625 -0.3744047619047619 0  0.2743272717766799 0.1698562554772697 0  -0.3279338175957848 0.06764246763930631 0  -1.863068181818182 0.3630681818181818 0  2 -0.375 0  1.875 -0.5 0  -0.05442366733490933 -0.3203147637646457 0  1.321986607142857 -0.3448660714285714 0  1.125 -0.5 0  -1.209821428571429 0.3236607142857143 0  -0.5229484956063458 0.1781011282952406 0  0.9067445847815293 -0.1625224987586892 0  -0.8335714777578845 0.1642411083184135 0  -1.237063437253354 0.1627182813733228 0  -0.4947697009489606 0.3378596801347012 0  0.53125 -0.171875 0  0.5156249999999999 -0.3359375 0  -2 0.125 0  1.873225308641975 -0.1497685185185185 0  0.2341337966231563 -0.1911191776024666 0  -0.625 0.5 0  1.587453076345555 -0.2288757784711196 0  1.8125 -0.3654761904761905 0  -0.3326862624810256 -0.08869875963335262 0  -0.375 0.5 0  1.174048204529175 -0.319244854540162 0  -1.067618031042359 0.3674567846760797 0  -0.96875 0.109375 0  1.481463366596639 -0.3565498074229692 0  1.023503306098383 -0.3576535124663073 0  -0.2265388519390893 0.1866542405407749 0  0.625 -0.5 0  -1.852445652173913 0.1432065217391304 0  -1.375 0.5 0  -1.479101577239454 0.3541992113802732 0  0.2708871299591885 -0.3541935649795943 0  1.520204106978579 -0.109375 0  0.78125 -0.1026731411563172 0  -0.3125 0.3785994323952442 0  0.3749999999999999 -0.5 0  1.141568346088435 -0.109375 0  1.358431653911565 -0.109375 0  1.668712727161379 -0.1246887081867154 0  -1.673050595238095 0.1226339285714286 0  -1.34375 0 0  -1.431523109243698 0.1313182773109244 0  -0.7546231943577876 0.3660317014105531 0  -0.6233296454587935 0.3645528204344609 0  0.7546231943577878 -0.3660317014105531 0  0.6537002726710706 -0.125 0  -0.6441338591766993 0.125 0  1.375 -0.5 0  -2 0.375 0  -1.875 0.5 0  1.625 -0.5 0  -1.625 0.5 0  0.875 -0.5 0  -0.875 0.5 0  0.1249999999999999 -0.5 0  -0.125 0.5 0  2 -0.125 0  -1.125 0.5 0  -1.354082022940739 0.375 0  -0.03500388138134332 0.2732363193989585 0  0.3955099577726473 -0.3752808566622692 0  0.3596026196703111 0.0631070919012526 0  -0.0625 0.394061918116807 0  0.6342080192637126 -0.3582597885274255 0  -1.123666900137815 0.109375 0  -1.744588744588745 0.3803841991341991 0  0.2210084381421171 0.2925777566973838 0  0.8072251313743133 -0.2315819627814412 0  -0.1814335426834733 -0.3282792760620681 0  -0.9356634513979559 0.2218154628239019 0  0.4183753556420685 -0.1414382112841371 0  -0.1238894550978499 -0.2292394949250368 0  0.96875 0 0  1.013652292192466 -0.1102204462032291 0  -0.4393328341626322 0.09834605222123384 0  1.882206434331873 -0.2686982850037661 0  0.1426699461850768 0.2146575767791519 0  -1.886304127069339 0.251758104550396 0  0.2495743011762567 0.06264742837969955 0  -0.78125 0 0  0.04042933102838756 -0.2590839715717854 0  -1.53125 0 0  -0.5823692714154002 0.2663576540687616 0  -0.2594008044921133 0.2871583817002197 0  -0.9375 0.4157678007976423 0  0.9696186653311423 -0.2675997292662616 0  -0.7942971416386473 0.2646257048857303 0  0.06249999999999992 -0.4169388545076413 0  0.1874999999999999 -0.4169388545076413 0  -1.562839467699977 0.2864000626355251 0  -0.1875 0.4157529178973974 0  -0.1223698320396133 0.2179970721626365 0  1.770639498024741 -0.1399156735731578 0  0.9367002721196375 -0.4157324987180338 0  -1.90625 0 0  -0.2298618769854927 -0.08904896555277285 0  0.1397131066802196 -0.232031643549068 0  -0.4375 0.420861596936145 0  -0.3483554784186823 -0.1925292675214375 0  0.59375 0 0  -1.327632151430252 0.1057660692693074 0  -0.9830051201906395 0.3115204496273563 0  1.90625 0 0  1.236354269160391 -0.3993990952861421 0  -1.1875 0.4214935578661845 0  0.5625 -0.4247705455161483 0  -0.7349377422908023 0.1635199768201956 0  -1.583328550170068 0.08705835459183674 0  -1.640104497493491 0.2259991665335075 0  -1.467109316827997 0.2210671404637805 0  0.5896070530325394 -0.2690578560650788 0  0.3266472067106532 -0.167734762534917 0  -0.59375 0 0  -0.546875 0.08448914438556519 0  1.71875 0 0  1.156078290691277 -0.2031315651260504 0  1.337704613095238 -0.2433035714285714 0  1.236312294597949 -0.09486607142857142 0  0.1642123379155914 0.3701207892454864 0  0.2345507206108115 -0.04384512844718241 0  -0.4048861533022036 -0.02273791864794379 0  0.03798857341016919 0.3979165301900267 0  -0.4006523628802168 0.334179001454817 0  -0.1135990210174155 -0.393340785880617 0  1.906775738056482 -0.3598876272511091 0  1.720393990929705 -0.4044642857142857 0  -1.71875 0 0  1.15625 0 0  0.78125 0 0  1.53125 0 0  -0.96875 0 0  1.34375 0 0  -1.15625 0 0  1.142828909845958 -0.4078056758504979 0  0.40697192225457 -0.01923608979840619 0  -1.767708120728825 0.08966855818957545 0  -0.6882384924227143 0.4308047125515967 0  -0.3636785153797087 0.1553944795036722 0  -0.2291274285977749 0.08616080495998404 0  -0.281012338688557 -0.01202669255906096 0  0.3108677056378212 0.2586754570559801 0  -1.151751953043632 0.196872287087452 0  -0.5625 0.4330368698813529 0  0.6875 -0.4328910527173583 0  1.405021000845949 -0.3057191080886871 0  0.546875 -0.08025568181818182 0  0.3713523302229579 0.1599284134935842 0  -1.12196127795563 0.2911449911382941 0  -1.276991293863022 0.2522534749828799 0  1.255195006158927 -0.2798057638555942 0  -0.8388532729558951 0.4114132763440825 0  0.8388532729558953 -0.4114132763440825 0  -0.4557763550657601 0.2486174768248819 0  0.2049883534781638 -0.2934473685517857 0  0.3226059585583683 -0.4273378498573185 0  -1.426982449282418 0.4270508114904024 0  1.397702183984896 -0.4056170514003312 0  0.05467855045156804 0.2285245978493705 0  -0.272823163096586 -0.3046204408381326 0  -0.02656096412551515 -0.4126877256833236 0  -1.807235369718798 0.2933328120993839 0  0.1906985117418444 0.1399478964461678 0  -1.688085622354259 0.3115694793217502 0  1.659329587961023 -0.2879395206246994 0  -1.5625 0.437202380952381 0  1.546313524296827 -0.4210926184041992 0  -1.813279560389256 0.4363923695021056 0  -1.926524548924358 0.4265245489243581 0  -0.1751061200004134 -0.1578066000831913 0  0.2891187728554643 -0.268298186700636 0  0.4721679687499999 -0.2490234375 0  0.7276683718449491 -0.1720688736051095 0  0.4744973194747868 -0.4152356216385488 0  0.9322020604693165 -0.07914563824612769 0  -1.275602471792197 0.4154857864535745 0  -0.828125 0.07552171441918698 0  1.3125 -0.5 0  -1.931646474339171 0.178059096704675 0  -0.7167268019830385 0.08016211756451477 0  1.060414578698922 -0.4368616551407768 0  -1.6875 0.5 0  1.9375 -0.5 0  1.739833210773432 -0.3220974693894793 0  -2 0.3125 0  -1.207440692409131 0.07848980221212992 0  -0.04055821595704934 -0.2377097412335854 0  0.1922531441870086 -0.1190381071624572 0  1.509237778147088 -0.2717758217431455 0  0.8901922386429052 -0.2437760747352658 0  -1.498530569603453 0.07867879855510211 0  0.9849923856958628 -0.1870513965806273 0  1.515605916195201 -0.1906351698786736 0  1.439317880445072 -0.08458133750179306 0  1.932491348856277 -0.2050969650933771 0  1.828075655121533 -0.08087981225769847 0  1
[...]
<PointData  Vectors="f_39"> 
<DataArray  type="Float64"  Name="f_39"  NumberOfComponents="3" format="ascii">2.4043002701059780e+01 -6.1955803858483827e-01 0.0000000000000000e+00  4.0674252217482915e-02 -3.2156929073270890e-01 0.0000000000000000e+00  3.3980411330584829e+01 -1.2350584141556958e+01 0.0000000000000000e+00  3.3573799112692441e+01 -1.2597774907802945e+01 0.0000000000000000e+00  3.3407566954620712e+01 -1.2560154460393552e+01 0.0000000000000000e+00  3.2893494282766731e+01 -1.2631095227269553e+01 0.0000000000000000e+00  3.2619208788720883e+01 -1.2392899508370670e+01 0.0000000000000000e+00  3.2391117392367228e+01 -1.2101169654711475e+01 0.0000000000000000e+00  3.2238502262944870e+01 -1.1823512448901093e+01 0.0000000000000000e+00  3.2179661143139072e+01 -1.1607864838722316e+01 0.0000000000000000e+00  3.2342491919180269e+01 -1.1125216499008776e+01 0.0000000000000000e+00  3.2401808277559155e+01 -1.1009000821476103e+01 0.0000000000000000e+00  3.2517728139015347e+01 -1.0863682091765567e+01 0.0000000000000000e+00  3.2633699315935019e+01 -1.0760135844083081e+01 0.0000000000000000e+00  3.2700144434579627e+01 -1.0675701142158569e+01 0.0000000000000000e+00  3.2884086534779406e+01 -1.0524556039661428e+01 0.0000000000000000e+00  3.2990298544830928e+01 -1.0532661481266544e+01 0.0000000000000000e+00  3.5470836433593760e+01 -3.9709994835476312e-02 0.0000000000000000e+00  3.6891529549171985e+01 -8.3743887363664032e-02 0.0000000000000000e+00  3.6303696522813397e+01 -1.2454388570901664e+01 0.0000000000000000e+00  3.5555867779365300e+01 -1.3277988104165008e+01 0.0000000000000000e+00  3.4852930589561637e+01 -1.3328240303996385e+01 0.0000000000000000e+00  3.4430114662137079e+01 -1.3328102898584547e+01 0.0000000000000000e+00  3.3724145469516237e+01 -1.3277839289390876e+01 0.0000000000000000e+00  3.3203860875021796e+01 -1.2942481043415276e+01 0.0000000000000000e+00  3.3012001883120497e+01 -1.2517506494389153e+01 0.0000000000000000e+00  3.3000860868717865e+01 -1.2299873178072144e+01 0.0000000000000000e+00  3.2980035440176032e+01 -1.2018609683699612e+01 0.0000000000000000e+00  3.2958788951771453e+01 -1.1869222031847563e+01 0.0000000000000000e+00  3.3118705639037657e+01 -1.1653842420112534e+01 0.0000000000000000e+00  3.3146701607736041e+01 -1.1575511269784599e+01 0.0000000000000000e+00  3.3247921785349000e+01 -1.1502494600758489e+01 0.0000000000000000e+00  3.3283982094392869e+01 -1.1491514206837397e+01 0.0000000000000000e+00  3.3398628180331244e+01 -1.1439629565898272e+01 0.0000000000000000e+00  3.4125045833562737e+01 -1.1286531109103091e+01 0.0000000000000000e+00  3.4545714456435725e+01 -1.1298842272029903e+01 0.0000000000000000e+00  3.4591598158176240e+01 -1.1465662461771625e+01 0.0000000000000000e+00  3.4332224557623448e+01 -1.1646675767285114e+01 0.0000000000000000e+00  3.3756186370220462e+01 -1.1753571514098930e+01 0.0000000000000000e+00  3.3332461709398309e+01 -1.1385730924607758e+01 0.0000000000000000e+00  3.2941982830758597e+01 -1.1246532948289852e+01 0.0000000000000000e+00  3.3072447460817287e+01 -1.1132186127462319e+01 0.0000000000000000e+00  3.3311425771271523e+01 -1.1123619643155136e+01 0.0000000000000000e+00  3.3812254098692115e+01 -1.1291691005964468e+01 0.0000000000000000e+00  3.4135611320448533e+01 -1.1575543303539853e+01 0.0000000000000000e+00  3.4029177725634838e+01 -1.2077694206153563e+01 0.0000000000000000e+00  3.3705666275296387e+01 -1.2173456710135236e+01 0.0000000000000000e+00  3.3341802952031337e+01 -1.1986534336035353e+01 0.0000000000000000e+00  3.3459900644517113e+01 -1.1705429151822379e+01 0.0000000000000000e+00  3.3383055743519954e+01 -1.1626255619681665e+01 0.0000000000000000e+00  3.3844198413776866e+01 -1.1356798912789520e+01 0.0000000000000000e+00  4.1782738756538144e+01 -1.7296990478199465e+01 0.0000000000000000e+00  3.4646557506630941e+01 -5.3364367572023284e+00 0.0000000000000000e+00  2.3631829340350894e+01 -2.5751048952378966e+01 0.0000000000000000e+00  3.5284409288828151e+01 -1.1308908575282686e+01 0.0000000000000000e+00  3.7432088347206729e+01 -3.3956040295599959e+00 0.0000000000000000e+00  3.3999780698327136e+01 -8.6948076230368212e+00 0.0000000000000000e+00  4.7436457808151104e+01 -4.6529820355216941e+01 0.0000000000000000e+00  3.4909949027791420e+01 -1.9021777259230763e+00 0.0000000000000000e+00  3.1312855056712774e+01 -1.4255316011568041e+01 0.0000000000000000e+00  3.8326251305100548e+01 -6.1040428125706638e+00 0.0000000000000000e+00  1.6274005475611673e+01 -4.8020700745862122e+01 0.0000000000000000e+00  3.7112463840417369e+01 -1.3335954363706790e+00 0.0000000000000000e+00  3.6123822066497773e+01 -8.0180435145298254e+00 0.0000000000000000e+00  3.5014590186773397e+01 -1.3582429356305378e+01 0.0000000000000000e+00  1.3496147399282675e+01 -3.8139290756861915e-01 0.0000000000000000e+00  3.5250595316939510e+01 -6.8204682053507670e-01 0.0000000000000000e+00  3.3570895909400967e+01 -9.9234301816761263e+00 0.0000000000000000e+00  3.4251377049685075e+01 -1.1892301608100448e+01 0.0000000000000000e+00  3.4817258369178809e+01 -1.0175110075083742e+01 0.0000000000000000e+00  3.4343317911978666e+01 -2.1041544226511206e+01 0.0000000000000000e+00  3.6413631415567764e+01 -4.7924355364092417e+00 0.0000000000000000e+00  4.4642014307628500e+01 -6.5068138936108170e+01 0.0000000000000000e+00  4.5656292101228942e+01 -2.7077558643780574e+01 0.0000000000000000e+00  3.3784884624824748e+01 -3.5422802932884458e+01 0.0000000000000000e+00  3.6342387465326389e+01 -2.3696902442948136e+00 0.0000000000000000e+00  3.6142766392094835e+01 -9.5588114903274707e-02 0.0000000000000000e+00  3.4690667529556109e+01 -3.4584144359474989e+00 0.0000000000000000e+00  3.6172352656684531e+01 -9.9139187677417850e-01 0.0000000000000000e+00  2.6843522061971356e+01 -5.9509628248647914e+01 0.0000000000000000e+00  3.4483804288737510e+01 -7.1630314619943238e+00 0.0000000000000000e+00  3.7871069107152707e+01 -1.2705088236708955e+01 0.0000000000000000e+00  3.4040745903245593e+01 -1.1055720064943483e+01 0.0000000000000000e+00  3.3827176473496387e+01 -1.1600248465283137e+01 0.0000000000000000e+00  3.3588976504063623e+01 -1.0679882686847543e+01 0.0000000000000000e+00  3.7055433355495808e+01 -1.6102236188368288e+01 0.0000000000000000e+00  3.5664074422649172e+01 -6.1823866237870941e+00 0.0000000000000000e+00  3.6429008770000728e+01 -3.5192688015636375e+00 0.0000000000000000e+00  3.7406500619356528e+01 -2.2958492296248498e+00 0.0000000000000000e+00  1.9790983144062054e+01 -3.5842811428571359e+01 0.0000000000000000e+00  3.7820627890357770e+01 -4.3714622188192500e+00 0.0000000000000000e+00  2.7886585743329992e+01 -1.8046962286284828e+01 0.0000000000000000e+00  3.3199725406416093e+01 -1.3029297187320234e+01 0.0000000000000000e+00  3.8461107947364333e+01 -8.5058587247711941e+00 0.0000000000000000e+00  3.6988250059330177e+01 -5.1355145323026674e-01 0.0000000000000000e+00  1.4515965316228145e+01 -5.6570387921508683e+01 0.0000000000000000e+00  3.5017800177722719e+01 -1.1392326513831657e+01 0.0000000000000000e+00  2.6998687599514799e+01 -4.5274049782492092e+01 0.0000000000000000e+00  3.3391320888771816e+01 -1.1681440813667839e+01 0.0000000000000000e+00  3.2864329056760404e+01 -1.1480042285940854e+01 0.0000000000000000e+00  3.9166463069469394e+01 -5.4285386821136356e+01 0.0000000000000000e+00  3.5573995325871209e+01 -1.4540790346184786e+00 0.0000000000000000e+00  3.3857531069480956e+01 -1.2098945325511062e+01 0.0000000000000000e+00  3.3868773100253314e+01 -1.2024708299076172e+01 0.0000000000000000e+00  3.1947819583476011e+01 -7.6682444816201240e+01 0.0000000000000000e+00  3.5713403742506934e+01 -9.4821091572394017e-02 0.0000000000000000e+00  3.5410570856810324e+01 -3.5472357970451285e-01 0.0000000000000000e+00  3.3024104357371755e+01 -1.0967064977471185e+01 0.0000000000000000e+00  3.5568594583386080e+01 -3.0424241020898695e+00 0.0000000000000000e+00  3.4638934479565023e+01 -4.3523541113944466e+00 0.0000000000000000e+00  3.8020589909273426e+01 -2.6926142438359971e+01 0.0000000000000000e+00  3.4310812862280265e+01 -1.2506098288401008e+01 0.0000000000000000e+00  3.7092185629290221e+01 -6.0205227620434414e+00 0.0000000000000000e+00  3.3818135844095622e+01 -1.5252752230733163e+01 0.0000000000000000e+00  3.0718076710192069e+01 -2.7816733412718555e+01 0.0000000000000000e+00  3.4953098100954463e+01 -1.1998138202871962e+01 0.0000000000000000e+00  3.6276828518820679e+01 -9.5953148148015046e+00 0.0000000000000000e+00  3.4840480240948665e+01 -9.0704815462296775e+00 0.0000000000000000e+00  7.1252704710647485e+00 -3.5423762333230757e-01 0.0000000000000000e+00  3.6539427596176573e+01 -4.4354958097648844e-01 0.0000000000000000e+00  3.4365439726602183e+01 -1.0940739663319993e+01 0.0000000000000000e+00  3.6291780842801572e+01 -1.1687623542946779e+01 0.0000000000000000e+00  3.6228724842202368e+01 -1.6092768409260674e+00 0.0000000000000000e+00  3.5693007806211398e+01 -6.1620799835883433e-01 0.0000000000000000e+00  3.3328769163164658e+01 -1.1968737509061722e+01 0.0000000000000000e+00  3.4636318792160438e+01 -1.1081132791795055e+01 0.0000000000000000e+00  3.5651544446725865e+01 -4.0571874280239673e+00 0.0000000000000000e+00  3.8864268721291005e+01 -2.0890936867408168e+01 0.0000000000000000e+00  3.1587159723923076e+01 -1.7466880776627622e+01 0.0000000000000000e+00  3.5538212125586661e+01 -2.1535858303230198e+00 0.0000000000000000e+00  3.5449314842446690e+01 -5.0671768939090986e+00 0.0000000000000000e+00  3.3954430817542402e+01 -1.1891489143239344e+01 0.0000000000000000e+00  3.4271406082489555e+01 -7.9825059972999295e+00 0.0000000000000000e+00  1.6632690970763996e+01 -6.1541811376249001e+01 0.0000000000000000e+00  4.7968034919508241e+01 -3.5151246230804418e+01 0.0000000000000000e+00  4.0262686668758114e+01 -4.3514213269379212e+01 0.0000000000000000e+00  3.4049936712854468e+01 -1.0241086510067559e+01 0.0000000000000000e+00  3.6778015201999430e+01 -1.8978162536097742e+00 0.0000000000000000e+00  3.7685169720752292e+01 -7.1728961418592707e+00 0.0000000000000000e+00  3.4253347828717231e+01 -1.1459014716491099e+01 0.0000000000000000e+00  3.3732031694641293e+01 -9.4926739540226794e+00 0.0000000000000000e+00  3.7093219736206471e+01 -4.1000182938108072e+00 0.0000000000000000e+00  3.6937672117969690e+01 -2.8454407838541784e+00 0.0000000000000000e+00  3.6649055795851687e+01 -1.2587394545262882e+00 0.0000000000000000e+00  2.1877104394589367e+01 -5.2790749392508950e+01 0.0000000000000000e+00  2.1592869336514578e+01 -3.1587961845818082e+01 0.0000000000000000e+00  2.5700092781388296e+01 -3.7742934970638650e+01 0.0000000000000000e+00  3.6595291608012310e+01 -1.3656227232531032e+01 0.0000000000000000e+00  3.5718739582086421e+01 -1.2480459601992589e+01 0.0000000000000000e+00  3.5217356460819495e+01 -7.2394704849916298e+00 0.0000000000000000e+00  3.7133846183403001e+01 -8.5459982028391526e+00 0.0000000000000000e+00  3.3994350011156840e+01 -1.3150581769441910e+01 0.0000000000000000e+00  3.4815502555535872e+01 -2.7650876011376768e+00 0.0000000000000000e+00  1.9143901978882376e+01 -4.2659698186866740e-01 0.0000000000000000e+00  4.2558024323105982e+01 -8.2828091439508754e+01 0.0000000000000000e+00  3.5024002410137719e+01 -1.3365733692796256e+00 0.0000000000000000e+00  4.7217780197161147e+01 -5.5967002278433547e+01 0.0000000000000000e+00  3.4549170861546337e+01 -6.0867620080658744e+00 0.0000000000000000e+00  3.9638107354471884e+01 -1.4186338396486860e+01 0.0000000000000000e+00  3.3272161603223708e+01 -1.0226850112855471e+01 0.0000000000000000e+00  3.3589812953217780e+01 -1.1259008758013790e+01 0.0000000000000000e+00  3.6565996113992441e+01 -1.0419462482325897e-01 0.0000000000000000e+00  4.3731643414301736e+01 -2.2603738540624718e+01 0.0000000000000000e+00  4.1600719972439656e+01 -3.4931071567909662e+01 0.0000000000000000e+00  3.3525924987822243e+01 -1.1695027669775591e+01 0.0000000000000000e+00  3.4316140895392998e+01 -9.5912245156165312e+00 0.0000000000000000e+00  3.4769202601774431e+01 -1.2285508831788677e+01 0.0000000000000000e+00  3.3550904002966810e+01 -1.1499337645765024e+01 0.0000000000000000e+00  3.5171500418896954e+01 -8.0920198109143762e+00 0.0000000000000000e+00  2.9299849617059877e+01 -2.1800455495331462e+01 0.0000000000000000e+00  3.8077147733230390e+01 -6.4774714318075524e+01 0.0000000000000000e+00  3.3356355413052917e+01 -1.1918415178323503e+01 0.0000000000000000e+00  3.6495147135042110e+01 -6.8654327784557454e+00 0.0000000000000000e+00  3.2716860284409783e+01 -1.1113423467727676e+01 0.0000000000000000e+00  3.4299017651595065e+01 -1.7177075569546474e+01 0.0000000000000000e+00  3.5601721413279357e+01 -1.0697456743084105e+01 0.0000000000000000e+00  3.2958771807789986e+01 -1.1179895697267744e+01 0.0000000000000000e+00  3.8175594572866174e+01 -5.3054284337944120e+00 0.0000000000000000e+00  3.7358290176146539e+01 -4.9970725646091569e+00 0.0000000000000000e+00  3.4032221649287408e+01 -1.2278960298861813e+01 0.0000000000000000e+00  3.6085407408902924e+01 -4.3586515197176401e-01 0.0000000000000000e+00  3.3527595682214375e+01 -1.1703885303084755e+01 0.0000000000000000e+00  2.0513169427518388e+01 -6.9578286742697543e+01 0.0000000000000000e+00  3.4383893387838533e+01 -1.1657818110198814e+01 0.0000000000000000e+00  3.2616888127074134e+01 -1.3319325070104085e+01 0.0000000000000000e+00  3.3349068628362467e+01 -1.1108999620016334e+01 0.0000000000000000e+00  1.8015730841183260e+01 -4.1934518891616293e+01 0.0000000000000000e+00  3.4900542875916436e+01 -1.2584392796933638e+01 0.0000000000000000e+00  3.4067871854751935e+01 -1.1694931506652647e+01 0.0000000000000000e+00  3.9527669617402857e+01 -1.6392447500049133e+01 0.0000000000000000e+00  3.6158433810801675e+01 -5.5360412514947992e+00 0.0000000000000000e+00  3.5289435765288680e+01 -1.4698268562875674e+01 0.0000000000000000e+00  3.3209861465046110e+01 -1.0593876914981008e+01 0.0000000000000000e+00  3.3570204761942513e+01 -1.0256616771683797e+01 0.0000000000000000e+00  3.4259088894932589e+01 -4.8188776633903935e+01 0.0000000000000000e+00  3.3840074034921983e+01 -1.1356737172567287e+01 0.0000000000000000e+00  3.3717398448007614e+01 -1.1900338038060069e+01 0.0000000000000000e+00  3.6607487539694546e+01 -8.4317157154514943e-01 0.0000000000000000e+00  3.4929580279950763e+01 -5.7458211689612924e+00 0.0000000000000000e+00  1.2607999325388528e+01 -5.7226849348986100e+01 0.0000000000000000e+00  3.3431043707080683e+01 -1.1516449078715160e+01 0.0000000000000000e+00  3.3793594551563444e+01 -1.1093234440384625e+01 0.0000000000000000e+00  3.4933733219601891e+01 -1.1444245444422053e+01 0.0000000000000000e+00  3.2853079960771360e+01 -1.1976026434070114e+01 0.0000000000000000e+00  3.8275486546067022e+01 -9.5953167013716172e+00 0.0000000000000000e+00  2.6033597464339689e+01 -3.1500152136953513e+01 0.0000000000000000e+00  3.6846156869390789e+01 -1.8343571639124487e+01 0.0000000000000000e+00  3.6893811960056325e+01 -2.5302459579203740e-01 0.0000000000000000e+00  3.5189039687877447e+01 -3.6943975762050019e+00 0.0000000000000000e+00  4.2363120343419261e+01 -2.5195584037215273e+01 0.0000000000000000e+00  3.4441115588530295e+01 -8.5088240530457977e+00 0.0000000000000000e+00  3.4163527420881117e+01 -1.3884912681346329e+01 0.0000000000000000e+00  2.1110604802575466e+01 -4.6358927869415567e+01 0.0000000000000000e+00  2.8086273748439712e+01 -5.2517245431814082e+01 0.0000000000000000e+00  3.0420017421775331e+01 -4.1107945513810186e+01 0.0000000000000000e+00  3.5678158301940329e+01 -8.7505095121839211e+00 0.0000000000000000e+00  3.4949561478545142e+01 -1.0815935723972144e+01 0.0000000000000000e+00  3.3736578035821765e+01 -1.2669671892918153e+01 0.0000000000000000e+00  3.3899068174407077e+01 -1.2580254919884654e+01 0.0000000000000000e+00  3.7053905548925371e+01 -9.9068788551830933e-01 0.0000000000000000e+00  3.6481721445983908e+01 -4.1552787939711902e+00 0.0000000000000000e+00  3.6120555225445628e+01 -2.9947141039177332e+00 0.0000000000000000e+00  3.7042970870720389e+01 -3.5176976357194869e+00 0.0000000000000000e+00  3.3263861980030747e+01 -1.1729934966954621e+01 0.0000000000000000e+00  3.4662886963891431e+01 -1.1380981980941160e+01 0.0000000000000000e+00  3.3652534742684558e+01 -1.2285111549011038e+01 0.0000000000000000e+00  3.3402089935965030e+01 -1.1548791215192967e+01 0.0000000000000000e+00  3.4550111168634402e+01 -1.1750053633571019e+01 0.0000000000000000e+00  3.2801037439267702e+01 -1.0856220563320722e+01 0.0000000000000000e+00  3.5789365538623642e+01 -2.8374940827067796e-01 0.0000000000000000e+00  3.5496526386484696e+01 -8.8185603391174994e-01 0.0000000000000000e+00  1.5442626946572336e+01 -5.3600017235030165e+01 0.0000000000000000e+00  3.7586994465343096e+01 -3.8061067583346295e+00 0.0000000000000000e+00  3.8704880815101752e+01 -7.1328277057305831e+00 0.0000000000000000e+00  3.7209684962342855e+01 -1.7394794103838189e+00 0.0000000000000000e+00  2.9575076328521124e+01 -1.6008689781815512e+01 0.0000000000000000e+00  3.7417951925902038e+01 -2.8969144704537650e+00 0.0000000000000000e+00  2.5220557449176457e+01 -2.1321279134452674e+01 0.0000000000000000e+00  3.5131515291400085e+01 -4.1689766821587915e+00 0.0000000000000000e+00  3.5778108189832174e+01 -1.1860572057621567e+01 0.0000000000000000e+00  1.7990037065777727e+01 -5.6395134749069449e+01 0.0000000000000000e+00  3.6759458002112702e+01 -1.2456173537797493e+01 0.0000000000000000e+00  3.4090381133285206e+01 -1.2043742022985327e+01 0.0000000000000000e+00  3.4007111431590218e+01 -1.1908349591571589e+01 0.0000000000000000e+00  3.3661042510434534e+01 -1.1791408010117475e+01 0.0000000000000000e+00  3.3343635454080051e+01 -1.2371192930542596e+01 0.0000000000000000e+00  3.2670982321266166e+01 -2.4506270258986216e+01 0.0000000000000000e+00  3.5599340801566463e+01 -1.1775393186822781e+01 0.0000000000000000e+00  3.4733611489808126e+01 -7.5364214429455076e+00 0.0000000000000000e+00  3.5744159851035953e+01 -2.6894758284430553e+00 0.0000000000000000e+00  3.7131745597639664e+01 -1.0285554090648024e+01 0.0000000000000000e+00  3.4188511505478139e+01 -1.2654527528909208e+01 0.0000000000000000e+00  3.6334163250140385e+01 -2.3309341528657036e+01 0.0000000000000000e+00  3.4331288128959599e+01 -3.0546622571140460e+01 0.0000000000000000e+00  3.5942077865708043e+01 -3.5149592340571707e+00 0.0000000000000000e+00  3.7885364657773550e+01 -1.4252638438349663e+01 0.0000000000000000e+00  3.4977849217377283e+01 -6.4437023065770660e+00 0.0000000000000000e+00  3.4459601975503148e+01 -1.2123769335769941e+01 0.0000000000000000e+00  3.4040212095065897e+01 -1.0579000654694218e+01 0.0000000000000000e+00  3.3887413258805417e+01 -9.8736027176766203e+00 0.0000000000000000e+00  4.5277231201854697e+01 -3.9693930739130110e+01 0.0000000000000000e+00  3.5196116009294315e+01 -2.6191266109557572e+00 0.0000000000000000e+00  3.3406427227620696e+01 -1.1679385703521625e+01 0.0000000000000000e+00  3.2519170923554384e+01 -1.1400442914091666e+01 0.0000000000000000e+00  3.3027570708685666e+01 -1.0726808239209044e+01 0.0000000000000000e+00  2.8209807951470921e+01 -6.6193852505537023e+01 0.0000000000000000e+00  3.3783593420964820e+01 -1.1637521350979968e+01 0.0000000000000000e+00  3.2977162978334228e+01 -5.7582282352412250e+01 0.0000000000000000e+00  3.5911129475737077e+01 -1.2692672211414042e+00 0.0000000000000000e+00  4.4743452807020176e+01 -4.9550083591636408e+01 0.0000000000000000e+00  3.5264364715338949e+01 -1.8119153382177937e+00 0.0000000000000000e+00  4.2368696771821995e+01 -7.2919324095128545e+01 0.0000000000000000e+00  3.2476127947641466e+01 -8.4989686197990281e+01 0.0000000000000000e+00  3.3120891761091421e+01 -1.1301122231349915e+01 0.0000000000000000e+00  3.4277324446862131e+01 -1.0435711661757479e+01 0.0000000000000000e+00  3.5250236892167038e+01 -9.6827337225570655e+00 0.0000000000000000e+00  3.6896448572565127e+01 -7.8234324114006641e+00 0.0000000000000000e+00  3.4335128852895245e+01 -9.0282494117729950e+00 0.0000000000000000e+00  3.7824881709877744e+01 -5.7100558077908126e+00 0.0000000000000000e+00  4.3590475458159169e+01 -2.9823931033122570e+01 0.0000000000000000e+00  3.2515234708