<?xml version="1.0"?>
<VTKFile type="UnstructuredGrid"  version="0.1"  >
<UnstructuredGrid>
<Piece  NumberOfPoints="1981" NumberOfCells="3668">
<Points>
<DataArray  type="Float64"  NumberOfComponents="3"  format="ascii">-2 0.5 0  -2 0 0  -0.5 0 0  -0.4968561049466213 -0.05598223805165387 0  -0.4874639560909119 -0.1112604669781569 0  -0.4719416651541838 -0.1651395309775835 0  -0.4504844339512096 -0.216941869558779 0  -0.4233620996141421 -0.2660160382576682 0  -0.3909157412340148 -0.3117449009293669 0  -0.3535533905932738 -0.3535533905932737 0  -0.3117449009293669 -0.3909157412340148 0  -0.2660160382576683 -0.4233620996141421 0  -0.2169418695587791 -0.4504844339512095 0  -0.1651395309775836 -0.4719416651541837 0  -0.1112604669781573 -0.4874639560909118 0  -0.05598223805165402 -0.4968561049466213 0  -9.184850993605148e-17 -0.5 0  2 -0.5 0  2 0 0  0.5 0 0  0.4968561049466213 0.05598223805165393 0  0.4874639560909118 0.1112604669781572 0  0.4719416651541838 0.1651395309775835 0  0.4504844339512096 0.2169418695587791 0  0.4233620996141421 0.2660160382576683 0  0.3909157412340149 0.3117449009293667 0  0.3535533905932738 0.3535533905932737 0  0.3117449009293668 0.3909157412340149 0  0.2660160382576683 0.4233620996141421 0  0.2169418695587791 0.4504844339512096 0  0.1651395309775837 0.4719416651541837 0  0.1112604669781572 0.4874639560909118 0  0.05598223805165384 0.4968561049466213 0  3.061616997868383e-17 0.5 0  0.1398708344106534 0.05418624992807294 0  0.15 0 0  0.1398708344106534 -0.05418624992807295 0  0.1108513375830988 -0.1010543465469837 0  0.06686075336648065 -0.1342744937032594 0  0.01384025391949536 -0.1493601264442552 0  -0.04104944851081246 -0.1442738464759228 0  -0.09039519545688858 -0.1197025840920358 0  -0.1275325703594421 -0.07896482443160337 0  -0.1474459649525853 -0.02756242767248552 0  -0.1474459649525853 0.02756242767248555 0  -0.1275325703594421 0.07896482443160341 0  -0.09039519545688844 0.1197025840920359 0  -0.04104944851081243 0.1442738464759228 0  0.0138402539194953 0.1493601264442552 0  0.06686075336648074 0.1342744937032593 0  0.1108513375830989 0.1010543465469836 0  -1 0.5 0  1 -0.5 0  -1.25 0 0  -0.5 0.5 0  1.25 0 0  0.4999999999999999 -0.5 0  -1.5 0.5 0  1.5 -0.5 0  -0.875 0 0  0.875 0 0  -1.625 0 0  1.625 0 0  0.6875 -0.2500000000000001 0  -0.6875 0.25 0  -2 0.25 0  1.75 -0.5 0  0.2499999999999999 -0.5 0  -0.3583969912126916 0.25 0  0.3749999999999999 -0.25 0  -1.0625 0.21875 0  1.0625 -0.21875 0  -1.75 0.5 0  -1.25 0.5 0  -1.375 0.25 0  1.4375 -0.21875 0  2 -0.25 0  1.25 -0.5 0  1.7375 -0.2375 0  -1.7375 0.2375 0  0.75 -0.5 0  -0.75 0.5 0  -0.25 0.5 0  -0.1570377317087672 0.3153742794659282 0  0.1249999999999999 -0.3338777090152827 0  -0.8826650943396226 0.3263561320754717 0  0.8826650943396227 -0.3263561320754717 0  1.25 -0.1897321428571428 0  1.4375 0 0  -1.4375 0 0  1.0625 0 0  -1.0625 0 0  -0.6875 0 0  0.6875 0 0  1.8125 0 0  -1.8125 0 0  0.3263011380546194 -0.06940056902730968 0  -1.554017857142857 0.1790178571428572 0  0.08847100915780901 0.3109433440851622 0  -0.2412983234264066 -0.2156373655531345 0  -1.625 0.3744047619047619 0  1.625 -0.3744047619047619 0  0.2743272717766799 0.1698562554772697 0  -0.3279338175957848 0.06764246763930631 0  -1.863068181818182 0.3630681818181818 0  2 -0.375 0  1.875 -0.5 0  -0.05442366733490933 -0.3203147637646457 0  1.321986607142857 -0.3448660714285714 0  1.125 -0.5 0  -1.209821428571429 0.3236607142857143 0  -0.5229484956063458 0.1781011282952406 0  0.9067445847815293 -0.1625224987586892 0  -0.8335714777578845 0.1642411083184135 0  -1.237063437253354 0.1627182813733228 0  -0.4947697009489606 0.3378596801347012 0  0.53125 -0.171875 0  0.5156249999999999 -0.3359375 0  -2 0.125 0  1.873225308641975 -0.1497685185185185 0  0.2341337966231563 -0.1911191776024666 0  -0.625 0.5 0  1.587453076345555 -0.2288757784711196 0  1.8125 -0.3654761904761905 0  -0.3326862624810256 -0.08869875963335262 0  -0.375 0.5 0  1.174048204529175 -0.319244854540162 0  -1.067618031042359 0.3674567846760797 0  -0.96875 0.109375 0  1.481463366596639 -0.3565498074229692 0  1.023503306098383 -0.3576535124663073 0  -0.2265388519390893 0.1866542405407749 0  0.625 -0.5 0  -1.852445652173913 0.1432065217391304 0  -1.375 0.5 0  -1.479101577239454 0.3541992113802732 0  0.2708871299591885 -0.3541935649795943 0  1.520204106978579 -0.109375 0  0.78125 -0.1026731411563172 0  -0.3125 0.3785994323952442 0  0.3749999999999999 -0.5 0  1.141568346088435 -0.109375 0  1.358431653911565 -0.109375 0  1.668712727161379 -0.1246887081867154 0  -1.673050595238095 0.1226339285714286 0  -1.34375 0 0  -1.431523109243698 0.1313182773109244 0  -0.7546231943577876 0.3660317014105531 0  -0.6233296454587935 0.3645528204344609 0  0.7546231943577878 -0.3660317014105531 0  0.6537002726710706 -0.125 0  -0.6441338591766993 0.125 0  1.375 -0.5 0  -2 0.375 0  -1.875 0.5 0  1.625 -0.5 0  -1.625 0.5 0  0.875 -0.5 0  -0.875 0.5 0  0.1249999999999999 -0.5 0  -0.125 0.5 0  2 -0.125 0  -1.125 0.5 0  -1.354082022940739 0.375 0  -0.03500388138134332 0.2732363193989585 0  0.3955099577726473 -0.3752808566622692 0  0.3596026196703111 0.0631070919012526 0  -0.0625 0.394061918116807 0  0.6342080192637126 -0.3582597885274255 0  -1.123666900137815 0.109375 0  -1.744588744588745 0.3803841991341991 0  0.2210084381421171 0.2925777566973838 0  0.8072251313743133 -0.2315819627814412 0  -0.1814335426834733 -0.3282792760620681 0  -0.9356634513979559 0.2218154628239019 0  0.4183753556420685 -0.1414382112841371 0  -0.1238894550978499 -0.2292394949250368 0  0.96875 0 0  1.013652292192466 -0.1102204462032291 0  -0.4393328341626322 0.09834605222123384 0  1.882206434331873 -0.2686982850037661 0  0.1426699461850768 0.2146575767791519 0  -1.886304127069339 0.251758104550396 0  0.2495743011762567 0.06264742837969955 0  -0.78125 0 0  0.04042933102838756 -0.2590839715717854 0  -1.53125 0 0  -0.5823692714154002 0.2663576540687616 0  -0.2594008044921133 0.2871583817002197 0  -0.9375 0.4157678007976423 0  0.9696186653311423 -0.2675997292662616 0  -0.7942971416386473 0.2646257048857303 0  0.06249999999999992 -0.4169388545076413 0  0.1874999999999999 -0.4169388545076413 0  -1.562839467699977 0.2864000626355251 0  -0.1875 0.4157529178973974 0  -0.1223698320396133 0.2179970721626365 0  1.770639498024741 -0.1399156735731578 0  0.9367002721196375 -0.4157324987180338 0  -1.90625 0 0  -0.2298618769854927 -0.08904896555277285 0  0.1397131066802196 -0.232031643549068 0  -0.4375 0.420861596936145 0  -0.3483554784186823 -0.1925292675214375 0  0.59375 0 0  -1.327632151430252 0.1057660692693074 0  -0.9830051201906395 0.3115204496273563 0  1.90625 0 0  1.236354269160391 -0.3993990952861421 0  -1.1875 0.4214935578661845 0  0.5625 -0.4247705455161483 0  -0.7349377422908023 0.1635199768201956 0  -1.583328550170068 0.08705835459183674 0  -1.640104497493491 0.2259991665335075 0  -1.467109316827997 0.2210671404637805 0  0.5896070530325394 -0.2690578560650788 0  0.3266472067106532 -0.167734762534917 0  -0.59375 0 0  -0.546875 0.08448914438556519 0  1.71875 0 0  1.156078290691277 -0.2031315651260504 0  1.337704613095238 -0.2433035714285714 0  1.236312294597949 -0.09486607142857142 0  0.1642123379155914 0.3701207892454864 0  0.2345507206108115 -0.04384512844718241 0  -0.4048861533022036 -0.02273791864794379 0  0.03798857341016919 0.3979165301900267 0  -0.4006523628802168 0.334179001454817 0  -0.1135990210174155 -0.393340785880617 0  1.906775738056482 -0.3598876272511091 0  1.720393990929705 -0.4044642857142857 0  -1.71875 0 0  1.15625 0 0  0.78125 0 0  1.53125 0 0  -0.96875 0 0  1.34375 0 0  -1.15625 0 0  1.142828909845958 -0.4078056758504979 0  0.40697192225457 -0.01923608979840619 0  -1.767708120728825 0.08966855818957545 0  -0.6882384924227143 0.4308047125515967 0  -0.3636785153797087 0.1553944795036722 0  -0.2291274285977749 0.08616080495998404 0  -0.281012338688557 -0.01202669255906096 0  0.3108677056378212 0.2586754570559801 0  -1.151751953043632 0.196872287087452 0  -0.5625 0.4330368698813529 0  0.6875 -0.4328910527173583 0  1.405021000845949 -0.3057191080886871 0  0.546875 -0.08025568181818182 0  0.3713523302229579 0.1599284134935842 0  -1.12196127795563 0.2911449911382941 0  -1.276991293863022 0.2522534749828799 0  1.255195006158927 -0.2798057638555942 0  -0.8388532729558951 0.4114132763440825 0  0.8388532729558953 -0.4114132763440825 0  -0.4557763550657601 0.2486174768248819 0  0.2049883534781638 -0.2934473685517857 0  0.3226059585583683 -0.4273378498573185 0  -1.426982449282418 0.4270508114904024 0  1.397702183984896 -0.4056170514003312 0  0.05467855045156804 0.2285245978493705 0  -0.272823163096586 -0.3046204408381326 0  -0.02656096412551515 -0.4126877256833236 0  -1.807235369718798 0.2933328120993839 0  0.1906985117418444 0.1399478964461678 0  -1.688085622354259 0.3115694793217502 0  1.659329587961023 -0.2879395206246994 0  -1.5625 0.437202380952381 0  1.546313524296827 -0.4210926184041992 0  -1.813279560389256 0.4363923695021056 0  -1.926524548924358 0.4265245489243581 0  -0.1751061200004134 -0.1578066000831913 0  0.2891187728554643 -0.268298186700636 0  0.4721679687499999 -0.2490234375 0  0.7276683718449491 -0.1720688736051095 0  0.4744973194747868 -0.4152356216385488 0  0.9322020604693165 -0.07914563824612769 0  -1.275602471792197 0.4154857864535745 0  -0.828125 0.07552171441918698 0  1.3125 -0.5 0  -1.931646474339171 0.178059096704675 0  -0.7167268019830385 0.08016211756451477 0  1.060414578698922 -0.4368616551407768 0  -1.6875 0.5 0  1.9375 -0.5 0  1.739833210773432 -0.3220974693894793 0  -2 0.3125 0  -1.207440692409131 0.07848980221212992 0  -0.04055821595704934 -0.2377097412335854 0  0.1922531441870086 -0.1190381071624572 0  1.509237778147088 -0.2717758217431455 0  0.8901922386429052 -0.2437760747352658 0  -1.498530569603453 0.07867879855510211 0  0.9849923856958628 -0.1870513965806273 0  1.515605916195201 -0.1906351698786736 0  1.439317880445072 -0.08458133750179306 0  1.932491348856277 -0.2050969650933771 0  1.828075655121533 -0.08087981225769847 0  1
[...]
<PointData  Vectors="f_39"> 
<DataArray  type="Float64"  Name="f_39"  NumberOfComponents="3" format="ascii">-2.4445693907972104e+120 -1.0685350473789818e+121 0.0000000000000000e+00  3.3519814157270360e+119 -2.3543618827898661e+119 0.0000000000000000e+00  3.3365046655600644e+120 -2.4488741112034000e+120 0.0000000000000000e+00  1.6250861859923549e+120 -3.2018243805292300e+120 0.0000000000000000e+00  9.8338176909744912e+119 -2.5934316386173360e+120 0.0000000000000000e+00  8.3073838709660058e+119 -1.9610261686839675e+120 0.0000000000000000e+00  8.8727711868515571e+119 -1.6847326640733189e+120 0.0000000000000000e+00  1.0315878088762227e+120 -1.4728936709054561e+120 0.0000000000000000e+00  1.0686608634998639e+120 -1.3144875380506760e+120 0.0000000000000000e+00  1.1481766334931276e+120 -1.2010035122292030e+120 0.0000000000000000e+00  1.3241584651653999e+120 -9.5214465711664327e+119 0.0000000000000000e+00  1.3586075191483622e+120 -8.4879563138077810e+119 0.0000000000000000e+00  1.4491335998811271e+120 -6.9802017588262185e+119 0.0000000000000000e+00  1.5288968846429563e+120 -5.5647856004816548e+119 0.0000000000000000e+00  1.5869786914257360e+120 -4.5229627237600309e+119 0.0000000000000000e+00  1.7344375123890452e+120 -2.1966140659071506e+119 0.0000000000000000e+00  1.9028056143201765e+120 -1.4591757798593815e+119 0.0000000000000000e+00  3.3457090437573810e+120 4.3618898318148011e+114 0.0000000000000000e+00  3.3460726100608768e+120 -1.2859095310913663e+115 0.0000000000000000e+00  2.6350064004829701e+120 -2.8377449114704015e+120 0.0000000000000000e+00  1.5015817351120198e+120 -3.0186922695401634e+120 0.0000000000000000e+00  8.8031780687953061e+119 -2.4352679214984372e+120 0.0000000000000000e+00  7.9097813691887092e+119 -2.0657198374103132e+120 0.0000000000000000e+00  8.9670219530434971e+119 -1.7162920550755936e+120 0.0000000000000000e+00  9.6260092501944413e+119 -1.4775349333736487e+120 0.0000000000000000e+00  1.1222774119352508e+120 -1.2755676572051561e+120 0.0000000000000000e+00  1.1908552719612083e+120 -1.1544989750056662e+120 0.0000000000000000e+00  1.2704562546651673e+120 -1.0010259320273569e+120 0.0000000000000000e+00  1.3147527209495855e+120 -8.9198604108236295e+119 0.0000000000000000e+00  1.4705005511627048e+120 -6.7212163007853694e+119 0.0000000000000000e+00  1.5047551468898906e+120 -5.5170663218715674e+119 0.0000000000000000e+00  1.6153304579181468e+120 -4.0038778861037850e+119 0.0000000000000000e+00  1.6714183532104510e+120 -3.0459150283040114e+119 0.0000000000000000e+00  1.8797704423850848e+120 -1.2476956644150142e+119 0.0000000000000000e+00  1.4903954423504383e+120 -2.4232201111581330e+120 0.0000000000000000e+00  8.2865233462261331e+119 -1.8763597207317647e+120 0.0000000000000000e+00  7.1136779762562512e+119 -6.5315948652430241e+119 0.0000000000000000e+00  1.2597524986255615e+120 1.8491985061108835e+119 0.0000000000000000e+00  2.2637411243538838e+120 5.4919270061062327e+119 0.0000000000000000e+00  3.0847499517610159e+120 5.9095991851913460e+118 0.0000000000000000e+00  3.1240186896953449e+120 -1.2955471312445466e+120 0.0000000000000000e+00  2.6360931180725874e+120 -2.0521541062630484e+120 0.0000000000000000e+00  1.9239845011509753e+120 -2.3516139524143879e+120 0.0000000000000000e+00  9.8744710247716681e+119 -2.0459564286161951e+120 0.0000000000000000e+00  5.8210045438240226e+119 -1.3689725401026615e+120 0.0000000000000000e+00  1.0345961561631843e+120 -1.3201926356327932e+119 0.0000000000000000e+00  1.7985909782291907e+120 4.5484769261801012e+119 0.0000000000000000e+00  2.7146888549030624e+120 4.0715808653121355e+119 0.0000000000000000e+00  3.2426716853828439e+120 -7.5406909542758366e+119 0.0000000000000000e+00  3.1879320611980964e+120 -1.2204091915090997e+120 0.0000000000000000e+00  2.0772307298357878e+120 -2.4347156892019376e+120 0.0000000000000000e+00  3.2625686340910743e+120 -8.9847631868842915e+117 0.0000000000000000e+00  3.3092861005181754e+120 -7.9320904212522322e+117 0.0000000000000000e+00  3.2343255605706878e+120 -1.0744944631715171e+118 0.0000000000000000e+00  2.8002277350259518e+120 -6.1179633317933427e+118 0.0000000000000000e+00  3.3538848006384260e+120 -1.3674831411505001e+117 0.0000000000000000e+00  2.8617334525891106e+120 -6.4903712235090738e+118 0.0000000000000000e+00  3.6154645423100474e+120 -6.4981390508634978e+118 0.0000000000000000e+00  3.3442778901703666e+120 -2.8050510042700472e+116 0.0000000000000000e+00  3.3625125333723024e+120 -1.7201011191411798e+118 0.0000000000000000e+00  3.4308408879908908e+120 -1.8900604737585044e+118 0.0000000000000000e+00  2.7201920633216668e+120 -9.4186309243650895e+118 0.0000000000000000e+00  3.3466054087072430e+120 -8.9070147141711737e+115 0.0000000000000000e+00  3.2936111602185037e+120 -2.6766257257850174e+119 0.0000000000000000e+00  3.2367259877327205e+120 -2.2645712636327109e+119 0.0000000000000000e+00  5.3226226747258851e+119 -3.3403230723979186e+120 0.0000000000000000e+00  3.3455170371026404e+120 -2.5391054787974744e+115 0.0000000000000000e+00  2.3730934098969626e+120 -3.6644028544894635e+118 0.0000000000000000e+00  2.4751164851217607e+120 -5.5137031166479540e+119 0.0000000000000000e+00  2.5381463504281976e+120 -5.7878228791581451e+119 0.0000000000000000e+00  3.2858958677040334e+120 -4.1906745200805088e+118 0.0000000000000000e+00  3.3491683349574466e+120 -2.5084898501199116e+118 0.0000000000000000e+00  5.1799921395992542e+120 -2.9255295277269995e+119 0.0000000000000000e+00  3.3372878339249246e+120 -1.5303265512727060e+118 0.0000000000000000e+00  3.2829646152856861e+120 -1.3625936874189859e+119 0.0000000000000000e+00  3.3464123020489724e+120 -2.1832827302408119e+117 0.0000000000000000e+00  3.3458397157164660e+120 -3.0429039138215282e+115 0.0000000000000000e+00  3.3388327072452979e+120 -1.3847926544607220e+117 0.0000000000000000e+00  3.3458510404500801e+120 -3.6005655642069004e+116 0.0000000000000000e+00  2.9247379294110512e+120 -1.2502164395444251e+120 0.0000000000000000e+00  3.1850763016948084e+120 -2.2814606400411924e+118 0.0000000000000000e+00  3.1505317239966496e+120 -2.1620706840344621e+118 0.0000000000000000e+00  2.3659494033732429e+120 -4.8548397858838748e+118 0.0000000000000000e+00  2.2089812253029799e+120 -2.1006748819107951e+119 0.0000000000000000e+00  2.2173581576262797e+120 -2.0892980076319896e+119 0.0000000000000000e+00  3.2485394025137710e+120 -6.0244621885145277e+118 0.0000000000000000e+00  3.3078574820609148e+120 -6.1620897940757975e+118 0.0000000000000000e+00  3.3479674057173347e+120 -7.3801421483638978e+117 0.0000000000000000e+00  3.3481031863169026e+120 -4.3007792403616792e+116 0.0000000000000000e+00  3.1014778893093005e+120 -2.7894001563697625e+118 0.0000000000000000e+00  3.3708938468831365e+120 -4.2378197605460163e+117 0.0000000000000000e+00  3.2924137434897652e+120 -5.7313770160867706e+117 0.0000000000000000e+00  3.5608618820293317e+120 -6.5430945478257392e+118 0.0000000000000000e+00  3.7029140991365950e+120 -7.8696214908322468e+118 0.0000000000000000e+00  3.3461091920999484e+120 -2.6691973399391178e+115 0.0000000000000000e+00  1.7526591662532136e+120 -1.9740147409942559e+119 0.0000000000000000e+00  1.9522183846019561e+120 -1.3980560547121538e+120 0.0000000000000000e+00  3.0978486127591668e+120 -3.3310898035194336e+119 0.0000000000000000e+00  2.0630927818449320e+120 -7.8161703445035531e+119 0.0000000000000000e+00  1.6183239252076982e+120 -1.4894877683179034e+120 0.0000000000000000e+00  3.7039851536099482e+120 -5.4031303073221020e+119 0.0000000000000000e+00  3.3453479444281294e+120 -5.6015579526279827e+116 0.0000000000000000e+00  1.5402379568798981e+120 -1.7157139089889331e+120 0.0000000000000000e+00  1.9778325620939308e+120 -1.3562597107461540e+120 0.0000000000000000e+00  4.3755660354381042e+120 -4.0058912040061055e+120 0.0000000000000000e+00  3.3456889322203315e+120 -1.7044481568240130e+115 0.0000000000000000e+00  3.3456582571431556e+120 -8.2531651139195106e+114 0.0000000000000000e+00  2.1306816382910433e+120 -6.3572016947044154e+119 0.0000000000000000e+00  3.3432530649224724e+120 -3.7397388316994918e+117 0.0000000000000000e+00  3.3298594771712862e+120 -3.4223993905998159e+117 0.0000000000000000e+00  3.3011299529595027e+120 -5.1962153862386972e+118 0.0000000000000000e+00  3.1611359106382588e+120 -6.6992059055582182e+119 0.0000000000000000e+00  3.3818728456100940e+120 -6.1234037536167482e+118 0.0000000000000000e+00  3.3295666678345077e+120 -9.3785918468192705e+118 0.0000000000000000e+00  3.2623137684854684e+120 -5.7711892655176419e+118 0.0000000000000000e+00  2.8537060817931605e+120 -2.9131350829405701e+119 0.0000000000000000e+00  3.2670226698007603e+120 -7.1675083724087685e+119 0.0000000000000000e+00  2.9064407034466630e+120 -3.0009064724745836e+119 0.0000000000000000e+00  4.4602753401794691e+119 -1.2911795176115695e+120 0.0000000000000000e+00  3.3459188881439637e+120 -1.0277964084164116e+116 0.0000000000000000e+00  1.9933617291046515e+120 -4.6082671014435046e+119 0.0000000000000000e+00  3.0088471951848379e+120 -4.3029461161566888e+118 0.0000000000000000e+00  3.3459612605779596e+120 -8.6820488042193295e+116 0.0000000000000000e+00  3.3456164065953632e+120 -1.5287923760150033e+116 0.0000000000000000e+00  1.4453977732926547e+120 -1.9235374210874818e+120 0.0000000000000000e+00  2.5717553004586574e+120 -6.2869807180938265e+118 0.0000000000000000e+00  3.3400121661669865e+120 -1.0971713826131952e+118 0.0000000000000000e+00  3.2836191170620227e+120 -3.2305980285849756e+118 0.0000000000000000e+00  3.3107948146966732e+120 -3.5257842097634262e+118 0.0000000000000000e+00  3.3447389512324075e+120 -1.3774548517747664e+117 0.0000000000000000e+00  3.3270924010595238e+120 -2.3685321377918487e+118 0.0000000000000000e+00  1.8983783350946587e+120 -4.4515225591735269e+119 0.0000000000000000e+00  3.0570682423347043e+120 -4.7250253113493595e+118 0.0000000000000000e+00  1.5931214534304031e+120 -1.1299075442089254e+120 0.0000000000000000e+00  3.4198495738606617e+120 -2.2343330243800309e+118 0.0000000000000000e+00  3.4497387643455057e+120 -2.1097985733409694e+119 0.0000000000000000e+00  2.3737631638460206e+120 -2.7526009189485256e+119 0.0000000000000000e+00  3.3468126958785454e+120 -8.9910137275292852e+116 0.0000000000000000e+00  3.4665260176752936e+120 -1.1118618938121965e+119 0.0000000000000000e+00  2.4200735025795116e+120 -2.3150630936817356e+119 0.0000000000000000e+00  2.6011118843332240e+120 -4.6052219193884417e+118 0.0000000000000000e+00  3.3573142527415251e+120 -9.8382445135777332e+117 0.0000000000000000e+00  3.3488518362091699e+120 -2.4956957844748495e+117 0.0000000000000000e+00  3.3461975396200716e+120 -4.0048494960556162e+116 0.0000000000000000e+00  2.6832732220382150e+120 -5.2557524989315446e+119 0.0000000000000000e+00  3.1774967981982873e+120 -2.1373133179151520e+118 0.0000000000000000e+00  3.1525177891359143e+120 -1.3156635049274671e+119 0.0000000000000000e+00  3.1747846329114373e+120 -9.4608435992572423e+118 0.0000000000000000e+00  3.0482202586223488e+120 -1.8286032779055431e+119 0.0000000000000000e+00  3.2280190127334953e+120 -1.0982090033219241e+119 0.0000000000000000e+00  3.5097987071841269e+120 -3.3447111197863624e+119 0.0000000000000000e+00  3.4865864647676176e+120 -3.2417454174413926e+119 0.0000000000000000e+00  3.3421699543423559e+120 -8.1126255925238727e+116 0.0000000000000000e+00  1.6114947286854477e+120 -6.6805200269214649e+120 0.0000000000000000e+00  1.0146805840663860e+121 -3.2915384428588702e+120 0.0000000000000000e+00  3.3450717310625295e+120 -1.0069503066075244e+116 0.0000000000000000e+00  3.9832623724324316e+120 -1.3702525387243192e+119 0.0000000000000000e+00  3.2734262346057066e+120 -1.6608842562605818e+118 0.0000000000000000e+00  3.2240599164368071e+120 -1.1648568358212247e+118 0.0000000000000000e+00  2.1697546837020101e+120 -3.7780363730163731e+118 0.0000000000000000e+00  2.1521443239391194e+120 -5.3996937800948235e+118 0.0000000000000000e+00  3.3458993103193828e+120 -9.8807312739941453e+114 0.0000000000000000e+00  3.2998705862850854e+120 -9.3699648680616227e+117 0.0000000000000000e+00  3.3692718665611448e+120 -8.6915467598190977e+118 0.0000000000000000e+00  2.3458176835018404e+120 -2.8296884789886339e+119 0.0000000000000000e+00  2.6387496019161405e+120 -2.5337191252942041e+119 0.0000000000000000e+00  1.5246922163703475e+120 -2.0264785083149795e+120 0.0000000000000000e+00  2.1182500206907339e+120 -2.1762935696445982e+119 0.0000000000000000e+00  3.1254935434671027e+120 -1.9638606497817201e+119 0.0000000000000000e+00  3.2777853438884248e+120 -2.8298897188398845e+118 0.0000000000000000e+00  4.2596115144703940e+120 -1.3065238499868574e+120 0.0000000000000000e+00  1.6654373760415527e+120 -1.1559007679145814e+120 0.0000000000000000e+00  3.3524684329563208e+120 -1.2185542355985462e+119 0.0000000000000000e+00  1.6937295793378646e+120 -9.6662672064926299e+119 0.0000000000000000e+00  3.2925863953983184e+120 -6.1488850607293456e+118 0.0000000000000000e+00  2.7090458094325942e+120 -1.1357341346653199e+120 0.0000000000000000e+00  2.1740021001460483e+120 -1.2344266269749177e+120 0.0000000000000000e+00  3.3983735196547620e+120 -9.5875155555375744e+117 0.0000000000000000e+00  3.3721562175492577e+120 -2.2253890718517949e+118 0.0000000000000000e+00  2.8526397012298362e+120 -1.3776762894294193e+120 0.0000000000000000e+00  3.3458099755774879e+120 -1.2798072475660301e+116 0.0000000000000000e+00  2.1904066227937371e+120 -1.3927280679745689e+120 0.0000000000000000e+00  1.8259712702033311e+120 -2.5934598733818628e+120 0.0000000000000000e+00  1.4391219028983985e+120 -1.9302017113446948e+120 0.0000000000000000e+00  3.4371946789215806e+120 -2.8823755669428352e+118 0.0000000000000000e+00  2.4117812603292401e+120 -2.4765701280559211e+119 0.0000000000000000e+00  2.9491615597477399e+120 -6.0485277375356687e+118 0.0000000000000000e+00  3.0845361802912522e+120 -3.7714259814291166e+119 0.0000000000000000e+00  2.2731636696256251e+120 -3.6222076071908838e+119 0.0000000000000000e+00  3.2519653358871694e+120 -2.5676255219024439e+118 0.0000000000000000e+00  3.3391191786390585e+120 -4.4716282056960285e+118 0.0000000000000000e+00  3.2646645850961135e+120 -1.2497855670077233e+119 0.0000000000000000e+00  2.0746769457708000e+120 -1.8941683917187457e+119 0.0000000000000000e+00  2.2809205703362899e+120 -1.1366799410965450e+119 0.0000000000000000e+00  3.3566331139202494e+120 -4.2962584102150789e+119 0.0000000000000000e+00  2.2551783522935472e+120 -1.2505198284542023e+119 0.0000000000000000e+00  2.0775023601394752e+120 -1.2631220607219429e+118 0.0000000000000000e+00  3.3459986525492818e+120 -2.1697531559225743e+116 0.0000000000000000e+00  3.2967959037527544e+120 -2.3221335005502225e+118 0.0000000000000000e+00  1.0074136066627203e+120 -2.5556124294690591e+119 0.0000000000000000e+00  1.5045541697807366e+120 -1.9489774548014068e+120 0.0000000000000000e+00  2.1651110080450271e+120 -1.0041394578061847e+119 0.0000000000000000e+00  2.7139971274664415e+120 -1.5344281793730165e+119 0.0000000000000000e+00  1.2702582814507328e+120 -1.6921705325543422e+120 0.0000000000000000e+00  4.1745955146251124e+120 -3.6110680568411430e+119 0.0000000000000000e+00  3.2107492623869932e+120 -6.4793943559378898e+118 0.0000000000000000e+00  3.2729329017419032e+120 -4.6158984764387151e+118 0.0000000000000000e+00  3.3459367460217267e+120 -2.0125566393165212e+115 0.0000000000000000e+00  3.3382468448695990e+120 -5.4346970463463580e+117 0.0000000000000000e+00  3.3126703670947565e+120 -2.5100344205450473e+118 0.0000000000000000e+00  2.9607255751615022e+120 -1.3507398973166005e+119 0.0000000000000000e+00  3.3600327135713247e+120 -1.8594758055539870e+119 0.0000000000000000e+00  2.8958349859017314e+120 -2.3043971955454467e+119 0.0000000000000000e+00  3.0949066023205658e+120 -6.7357694250467109e+119 0.0000000000000000e+00  3.2193974394979907e+120 -2.2966682879206497e+119 0.0000000000000000e+00  3.1416200976434765e+120 -3.8436613510035663e+119 0.0000000000000000e+00  2.2622673820622166e+120 -8.8484775765350310e+119 0.0000000000000000e+00  4.0127493204047117e+120 -3.1159562735214018e+119 0.0000000000000000e+00  3.7879182187171286e+120 -8.0306245469890475e+119 0.0000000000000000e+00  3.3462513354698877e+120 -8.5795331054333708e+115 0.0000000000000000e+00  3.3497346132394707e+120 -1.3963326063160492e+118 0.0000000000000000e+00  3.3457865976985108e+120 -4.3721243502105077e+117 0.0000000000000000e+00  3.3524507947768577e+120 -4.9563223267465678e+117 0.0000000000000000e+00  1.6978329252132578e+120 -7.9376545863438359e+119 0.0000000000000000e+00  1.3162933164028756e+120 -1.1539275825035763e+120 0.0000000000000000e+00  1.9436522160808595e+120 -2.3915473641378426e+120 0.0000000000000000e+00  1.9542831260911629e+120 -3.6063572103466053e+119 0.0000000000000000e+00  2.6274606204879054e+120 -3.4528968437118909e+119 0.0000000000000000e+00  1.7611043190768875e+120 -5.9493692265377968e+119 0.0000000000000000e+00  3.3457376731629653e+120 -5.2354317374876611e+115 0.0000000000000000e+00  3.3454960323203373e+120 -2.0353738338220217e+116 0.0000000000000000e+00  2.2417787336780521e+120 -1.3846353297939799e+119 0.0000000000000000e+00  3.3595881894707543e+120 -2.1923651818715431e+117 0.0000000000000000e+00  3.4997588525101943e+120 -3.8674658072217498e+118 0.0000000000000000e+00  3.3471369030528158e+120 -1.8397555736133595e+116 0.0000000000000000e+00  3.3182213938154883e+120 -7.2993913896427778e+117 0.0000000000000000e+00  3.3502308928906663e+120 -7.0612757351768274e+116 0.0000000000000000e+00  3.2657698587103387e+120 -7.4099656373835948e+117 0.0000000000000000e+00  3.3348079698838344e+120 -7.8843493533041615e+117 0.0000000000000000e+00  2.4268024799758986e+120 -2.1072158760984342e+120 0.0000000000000000e+00  2.1622108952990603e+120 -5.9101133282084691e+119 0.0000000000000000e+00  3.0951127123764212e+120 -6.5055502286165635e+118 0.0000000000000000e+00  2.4051870795325692e+120 -9.4026181274140652e+119 0.0000000000000000e+00  1.3952394215745091e+120 -8.5043761422340889e+119 0.0000000000000000e+00  1.4946713636030247e+120 -1.7501628081981306e+120 0.0000000000000000e+00  1.2919898393193125e+120 -1.3719740695040754e+120 0.0000000000000000e+00  3.2788353463064681e+120 -4.5626334402936556e+118 0.0000000000000000e+00  2.9303059081270652e+120 -1.1803683390302746e+119 0.0000000000000000e+00  3.1565872418189767e+120 -7.6905162181793178e+118 0.0000000000000000e+00  3.3445448491483843e+120 -2.9977891565201028e+117 0.0000000000000000e+00  3.7154855488386193e+120 -1.0862755179957011e+120 0.0000000000000000e+00  1.2354628035106653e+120 -1.8511042297563635e+120 0.0000000000000000e+00  3.2872888189942677e+120 -4.2733119426951817e+118 0.0000000000000000e+00  3.2844668442523902e+120 -8.0260510064844310e+118 0.0000000000000000e+00  3.3443010444770579e+120 -7.2375917242188512e+117 0.0000000000000000e+00  3.2098371682365908e+120 -4.9085812476870449e+118 0.0000000000000000e+00  3.2657780101958944e+120 -4.7870744031069456e+118 0.0000000000000000e+00  2.7848157709991591e+120 -6.0391030449123088e+119 0.0000000000000000e+00  2.2343243723450981e+120 -2.8630644914751679e+119 0.0000000000000000e+00  2.4884839823558184e+120 -1.5804820208705870e+119 0.0000000000000000e+00  3.4542704834616292e+120 -8.3260941209772599e+118 0.0000000000000000e+00  3.3433658270835458e+120 -1.6926683928555704e+117 0.0000000000000000e+00  2.6334546333320353e+120 -8.7211710695443112e+119 0.0000000000000000e+00  1.4152947507853302e+120 -1.2008420449038750e+120 0.0000000000000000e+00  1.9541028884452817e+120 -3.5299441088244186e+119 0.0000000000000000e+00  3.1342242321079361e+120 -2.0268551158013179e+120 0.0000000000000000e+00  1.9282050046856862e+120 -1.9131168870599453e+120 0.0000000000000000e+00  3.4553585176426302e+120 -9.7207984547815239e+119 0.0000000000000000e+00  3.3456597320811543e+120 -5.2884366221458562e+116 0.0000000000000000e+00  3.7010860805727588e+120 -2.0015608050826888e+119 0.0000000000000000e+00  3.3447750259853891e+120 -6.4162770589741107e+116 0.0000000000000000e+00  5.7161398834107705e+120 -1.6711295860891154e+120 0.0000000000000000e+00  5.6884997712399143e+120 -7.93661353828068