<?xml version="1.0"?>
<VTKFile type="UnstructuredGrid"  version="0.1"  >
<UnstructuredGrid>
<Piece  NumberOfPoints="1981" NumberOfCells="3668">
<Points>
<DataArray  type="Float64"  NumberOfComponents="3"  format="ascii">-2 0.5 0  -2 0 0  -0.5 0 0  -0.4968561049466213 -0.05598223805165387 0  -0.4874639560909119 -0.1112604669781569 0  -0.4719416651541838 -0.1651395309775835 0  -0.4504844339512096 -0.216941869558779 0  -0.4233620996141421 -0.2660160382576682 0  -0.3909157412340148 -0.3117449009293669 0  -0.3535533905932738 -0.3535533905932737 0  -0.3117449009293669 -0.3909157412340148 0  -0.2660160382576683 -0.4233620996141421 0  -0.2169418695587791 -0.4504844339512095 0  -0.1651395309775836 -0.4719416651541837 0  -0.1112604669781573 -0.4874639560909118 0  -0.05598223805165402 -0.4968561049466213 0  -9.184850993605148e-17 -0.5 0  2 -0.5 0  2 0 0  0.5 0 0  0.4968561049466213 0.05598223805165393 0  0.4874639560909118 0.1112604669781572 0  0.4719416651541838 0.1651395309775835 0  0.4504844339512096 0.2169418695587791 0  0.4233620996141421 0.2660160382576683 0  0.3909157412340149 0.3117449009293667 0  0.3535533905932738 0.3535533905932737 0  0.3117449009293668 0.3909157412340149 0  0.2660160382576683 0.4233620996141421 0  0.2169418695587791 0.4504844339512096 0  0.1651395309775837 0.4719416651541837 0  0.1112604669781572 0.4874639560909118 0  0.05598223805165384 0.4968561049466213 0  3.061616997868383e-17 0.5 0  0.1398708344106534 0.05418624992807294 0  0.15 0 0  0.1398708344106534 -0.05418624992807295 0  0.1108513375830988 -0.1010543465469837 0  0.06686075336648065 -0.1342744937032594 0  0.01384025391949536 -0.1493601264442552 0  -0.04104944851081246 -0.1442738464759228 0  -0.09039519545688858 -0.1197025840920358 0  -0.1275325703594421 -0.07896482443160337 0  -0.1474459649525853 -0.02756242767248552 0  -0.1474459649525853 0.02756242767248555 0  -0.1275325703594421 0.07896482443160341 0  -0.09039519545688844 0.1197025840920359 0  -0.04104944851081243 0.1442738464759228 0  0.0138402539194953 0.1493601264442552 0  0.06686075336648074 0.1342744937032593 0  0.1108513375830989 0.1010543465469836 0  -1 0.5 0  1 -0.5 0  -1.25 0 0  -0.5 0.5 0  1.25 0 0  0.4999999999999999 -0.5 0  -1.5 0.5 0  1.5 -0.5 0  -0.875 0 0  0.875 0 0  -1.625 0 0  1.625 0 0  0.6875 -0.2500000000000001 0  -0.6875 0.25 0  -2 0.25 0  1.75 -0.5 0  0.2499999999999999 -0.5 0  -0.3583969912126916 0.25 0  0.3749999999999999 -0.25 0  -1.0625 0.21875 0  1.0625 -0.21875 0  -1.75 0.5 0  -1.25 0.5 0  -1.375 0.25 0  1.4375 -0.21875 0  2 -0.25 0  1.25 -0.5 0  1.7375 -0.2375 0  -1.7375 0.2375 0  0.75 -0.5 0  -0.75 0.5 0  -0.25 0.5 0  -0.1570377317087672 0.3153742794659282 0  0.1249999999999999 -0.3338777090152827 0  -0.8826650943396226 0.3263561320754717 0  0.8826650943396227 -0.3263561320754717 0  1.25 -0.1897321428571428 0  1.4375 0 0  -1.4375 0 0  1.0625 0 0  -1.0625 0 0  -0.6875 0 0  0.6875 0 0  1.8125 0 0  -1.8125 0 0  0.3263011380546194 -0.06940056902730968 0  -1.554017857142857 0.1790178571428572 0  0.08847100915780901 0.3109433440851622 0  -0.2412983234264066 -0.2156373655531345 0  -1.625 0.3744047619047619 0  1.625 -0.3744047619047619 0  0.2743272717766799 0.1698562554772697 0  -0.3279338175957848 0.06764246763930631 0  -1.863068181818182 0.3630681818181818 0  2 -0.375 0  1.875 -0.5 0  -0.05442366733490933 -0.3203147637646457 0  1.321986607142857 -0.3448660714285714 0  1.125 -0.5 0  -1.209821428571429 0.3236607142857143 0  -0.5229484956063458 0.1781011282952406 0  0.9067445847815293 -0.1625224987586892 0  -0.8335714777578845 0.1642411083184135 0  -1.237063437253354 0.1627182813733228 0  -0.4947697009489606 0.3378596801347012 0  0.53125 -0.171875 0  0.5156249999999999 -0.3359375 0  -2 0.125 0  1.873225308641975 -0.1497685185185185 0  0.2341337966231563 -0.1911191776024666 0  -0.625 0.5 0  1.587453076345555 -0.2288757784711196 0  1.8125 -0.3654761904761905 0  -0.3326862624810256 -0.08869875963335262 0  -0.375 0.5 0  1.174048204529175 -0.319244854540162 0  -1.067618031042359 0.3674567846760797 0  -0.96875 0.109375 0  1.481463366596639 -0.3565498074229692 0  1.023503306098383 -0.3576535124663073 0  -0.2265388519390893 0.1866542405407749 0  0.625 -0.5 0  -1.852445652173913 0.1432065217391304 0  -1.375 0.5 0  -1.479101577239454 0.3541992113802732 0  0.2708871299591885 -0.3541935649795943 0  1.520204106978579 -0.109375 0  0.78125 -0.1026731411563172 0  -0.3125 0.3785994323952442 0  0.3749999999999999 -0.5 0  1.141568346088435 -0.109375 0  1.358431653911565 -0.109375 0  1.668712727161379 -0.1246887081867154 0  -1.673050595238095 0.1226339285714286 0  -1.34375 0 0  -1.431523109243698 0.1313182773109244 0  -0.7546231943577876 0.3660317014105531 0  -0.6233296454587935 0.3645528204344609 0  0.7546231943577878 -0.3660317014105531 0  0.6537002726710706 -0.125 0  -0.6441338591766993 0.125 0  1.375 -0.5 0  -2 0.375 0  -1.875 0.5 0  1.625 -0.5 0  -1.625 0.5 0  0.875 -0.5 0  -0.875 0.5 0  0.1249999999999999 -0.5 0  -0.125 0.5 0  2 -0.125 0  -1.125 0.5 0  -1.354082022940739 0.375 0  -0.03500388138134332 0.2732363193989585 0  0.3955099577726473 -0.3752808566622692 0  0.3596026196703111 0.0631070919012526 0  -0.0625 0.394061918116807 0  0.6342080192637126 -0.3582597885274255 0  -1.123666900137815 0.109375 0  -1.744588744588745 0.3803841991341991 0  0.2210084381421171 0.2925777566973838 0  0.8072251313743133 -0.2315819627814412 0  -0.1814335426834733 -0.3282792760620681 0  -0.9356634513979559 0.2218154628239019 0  0.4183753556420685 -0.1414382112841371 0  -0.1238894550978499 -0.2292394949250368 0  0.96875 0 0  1.013652292192466 -0.1102204462032291 0  -0.4393328341626322 0.09834605222123384 0  1.882206434331873 -0.2686982850037661 0  0.1426699461850768 0.2146575767791519 0  -1.886304127069339 0.251758104550396 0  0.2495743011762567 0.06264742837969955 0  -0.78125 0 0  0.04042933102838756 -0.2590839715717854 0  -1.53125 0 0  -0.5823692714154002 0.2663576540687616 0  -0.2594008044921133 0.2871583817002197 0  -0.9375 0.4157678007976423 0  0.9696186653311423 -0.2675997292662616 0  -0.7942971416386473 0.2646257048857303 0  0.06249999999999992 -0.4169388545076413 0  0.1874999999999999 -0.4169388545076413 0  -1.562839467699977 0.2864000626355251 0  -0.1875 0.4157529178973974 0  -0.1223698320396133 0.2179970721626365 0  1.770639498024741 -0.1399156735731578 0  0.9367002721196375 -0.4157324987180338 0  -1.90625 0 0  -0.2298618769854927 -0.08904896555277285 0  0.1397131066802196 -0.232031643549068 0  -0.4375 0.420861596936145 0  -0.3483554784186823 -0.1925292675214375 0  0.59375 0 0  -1.327632151430252 0.1057660692693074 0  -0.9830051201906395 0.3115204496273563 0  1.90625 0 0  1.236354269160391 -0.3993990952861421 0  -1.1875 0.4214935578661845 0  0.5625 -0.4247705455161483 0  -0.7349377422908023 0.1635199768201956 0  -1.583328550170068 0.08705835459183674 0  -1.640104497493491 0.2259991665335075 0  -1.467109316827997 0.2210671404637805 0  0.5896070530325394 -0.2690578560650788 0  0.3266472067106532 -0.167734762534917 0  -0.59375 0 0  -0.546875 0.08448914438556519 0  1.71875 0 0  1.156078290691277 -0.2031315651260504 0  1.337704613095238 -0.2433035714285714 0  1.236312294597949 -0.09486607142857142 0  0.1642123379155914 0.3701207892454864 0  0.2345507206108115 -0.04384512844718241 0  -0.4048861533022036 -0.02273791864794379 0  0.03798857341016919 0.3979165301900267 0  -0.4006523628802168 0.334179001454817 0  -0.1135990210174155 -0.393340785880617 0  1.906775738056482 -0.3598876272511091 0  1.720393990929705 -0.4044642857142857 0  -1.71875 0 0  1.15625 0 0  0.78125 0 0  1.53125 0 0  -0.96875 0 0  1.34375 0 0  -1.15625 0 0  1.142828909845958 -0.4078056758504979 0  0.40697192225457 -0.01923608979840619 0  -1.767708120728825 0.08966855818957545 0  -0.6882384924227143 0.4308047125515967 0  -0.3636785153797087 0.1553944795036722 0  -0.2291274285977749 0.08616080495998404 0  -0.281012338688557 -0.01202669255906096 0  0.3108677056378212 0.2586754570559801 0  -1.151751953043632 0.196872287087452 0  -0.5625 0.4330368698813529 0  0.6875 -0.4328910527173583 0  1.405021000845949 -0.3057191080886871 0  0.546875 -0.08025568181818182 0  0.3713523302229579 0.1599284134935842 0  -1.12196127795563 0.2911449911382941 0  -1.276991293863022 0.2522534749828799 0  1.255195006158927 -0.2798057638555942 0  -0.8388532729558951 0.4114132763440825 0  0.8388532729558953 -0.4114132763440825 0  -0.4557763550657601 0.2486174768248819 0  0.2049883534781638 -0.2934473685517857 0  0.3226059585583683 -0.4273378498573185 0  -1.426982449282418 0.4270508114904024 0  1.397702183984896 -0.4056170514003312 0  0.05467855045156804 0.2285245978493705 0  -0.272823163096586 -0.3046204408381326 0  -0.02656096412551515 -0.4126877256833236 0  -1.807235369718798 0.2933328120993839 0  0.1906985117418444 0.1399478964461678 0  -1.688085622354259 0.3115694793217502 0  1.659329587961023 -0.2879395206246994 0  -1.5625 0.437202380952381 0  1.546313524296827 -0.4210926184041992 0  -1.813279560389256 0.4363923695021056 0  -1.926524548924358 0.4265245489243581 0  -0.1751061200004134 -0.1578066000831913 0  0.2891187728554643 -0.268298186700636 0  0.4721679687499999 -0.2490234375 0  0.7276683718449491 -0.1720688736051095 0  0.4744973194747868 -0.4152356216385488 0  0.9322020604693165 -0.07914563824612769 0  -1.275602471792197 0.4154857864535745 0  -0.828125 0.07552171441918698 0  1.3125 -0.5 0  -1.931646474339171 0.178059096704675 0  -0.7167268019830385 0.08016211756451477 0  1.060414578698922 -0.4368616551407768 0  -1.6875 0.5 0  1.9375 -0.5 0  1.739833210773432 -0.3220974693894793 0  -2 0.3125 0  -1.207440692409131 0.07848980221212992 0  -0.04055821595704934 -0.2377097412335854 0  0.1922531441870086 -0.1190381071624572 0  1.509237778147088 -0.2717758217431455 0  0.8901922386429052 -0.2437760747352658 0  -1.498530569603453 0.07867879855510211 0  0.9849923856958628 -0.1870513965806273 0  1.515605916195201 -0.1906351698786736 0  1.439317880445072 -0.08458133750179306 0  1.932491348856277 -0.2050969650933771 0  1.828075655121533 -0.08087981225769847 0  1
[...]
<PointData  Vectors="f_39"> 
<DataArray  type="Float64"  Name="f_39"  NumberOfComponents="3" format="ascii">1.4367830408341027e+02 -5.0034794531443333e+02 0.0000000000000000e+00  2.3758012477494830e+01 -3.5565704393581868e+01 0.0000000000000000e+00  1.1118808259395855e+03 -5.7648372020940030e+02 0.0000000000000000e+00  7.7021058035200713e+02 -7.8326460422688899e+02 0.0000000000000000e+00  6.5056188901475491e+02 -6.9993579928673034e+02 0.0000000000000000e+00  5.5198346625434419e+02 -6.1833650862197157e+02 0.0000000000000000e+00  5.2603295757930755e+02 -5.3374139338887449e+02 0.0000000000000000e+00  5.3715759528013325e+02 -4.8448254611309920e+02 0.0000000000000000e+00  5.4331417480733649e+02 -4.3852880436368133e+02 0.0000000000000000e+00  5.5701151400396895e+02 -4.0805524988943137e+02 0.0000000000000000e+00  5.8685285070982445e+02 -3.4025190257470894e+02 0.0000000000000000e+00  5.9407040965098213e+02 -3.1962406000071053e+02 0.0000000000000000e+00  6.1174986699770352e+02 -2.8440125260077878e+02 0.0000000000000000e+00  6.2781044509754577e+02 -2.5091274477288707e+02 0.0000000000000000e+00  6.4255281339897317e+02 -2.2540839151868764e+02 0.0000000000000000e+00  6.7632898828375141e+02 -1.6252093402017064e+02 0.0000000000000000e+00  7.1856506849830657e+02 -1.5684038374403539e+02 0.0000000000000000e+00  1.1786498865980298e+03 8.5510796008020189e-03 0.0000000000000000e+00  1.1857170833755538e+03 -4.6658331905754108e-01 0.0000000000000000e+00  1.0019353644325678e+03 -8.0545173645897762e+02 0.0000000000000000e+00  7.1926754118540532e+02 -8.0822825680068956e+02 0.0000000000000000e+00  5.8781165742420035e+02 -7.1599877337289422e+02 0.0000000000000000e+00  5.5111407662111174e+02 -6.4952024929072388e+02 0.0000000000000000e+00  5.1598695765355887e+02 -5.6001891534248705e+02 0.0000000000000000e+00  5.1747902112368479e+02 -4.9501335446386361e+02 0.0000000000000000e+00  5.5085757161586184e+02 -4.4158816300773151e+02 0.0000000000000000e+00  5.5935256104997416e+02 -4.0709302392098641e+02 0.0000000000000000e+00  5.7694048573896919e+02 -3.6819095913585181e+02 0.0000000000000000e+00  5.6932402178030816e+02 -3.4758458635667000e+02 0.0000000000000000e+00  6.1364488228710240e+02 -2.8798699871439413e+02 0.0000000000000000e+00  6.1784701421413899e+02 -2.5649815625902329e+02 0.0000000000000000e+00  6.4700716134026891e+02 -2.1753377735391831e+02 0.0000000000000000e+00  6.6605256721775083e+02 -2.0418748309649260e+02 0.0000000000000000e+00  7.1426898154699950e+02 -1.6593533368198459e+02 0.0000000000000000e+00  7.1850430905855831e+02 -5.8751904784411545e+02 0.0000000000000000e+00  6.4898727779747048e+02 -5.1065247812884360e+02 0.0000000000000000e+00  6.1199151672484174e+02 -3.1812589588222767e+02 0.0000000000000000e+00  6.7952386679842243e+02 -1.8749691317708971e+02 0.0000000000000000e+00  8.3581865355876494e+02 -1.1584776826554184e+02 0.0000000000000000e+00  9.6759883053711144e+02 -1.4762695929258970e+02 0.0000000000000000e+00  9.3200481735112817e+02 -4.2558773505060230e+02 0.0000000000000000e+00  8.4643637535193307e+02 -5.4791115974391084e+02 0.0000000000000000e+00  7.1522240945045132e+02 -5.8204126034395483e+02 0.0000000000000000e+00  5.6483603121276758e+02 -5.1527566319393554e+02 0.0000000000000000e+00  4.8554684902715502e+02 -3.9008400287491946e+02 0.0000000000000000e+00  5.9604751979221885e+02 -1.8544831404333519e+02 0.0000000000000000e+00  7.0724859051640703e+02 -1.0337289953877620e+02 0.0000000000000000e+00  8.6617913648840852e+02 -9.1010340122705443e+01 0.0000000000000000e+00  9.7466135161580689e+02 -2.9991473022708357e+02 0.0000000000000000e+00  9.3616052374431160e+02 -3.7279216823640087e+02 0.0000000000000000e+00  8.1524914373605714e+02 -5.8469781062687127e+02 0.0000000000000000e+00  1.0991555970160080e+03 -1.5853315534591667e+02 0.0000000000000000e+00  1.1506856793115978e+03 -3.7452229908555218e+01 0.0000000000000000e+00  9.5284225605624545e+02 -1.8353320557979271e+02 0.0000000000000000e+00  9.4816841568416885e+02 -1.4451961091099301e+02 0.0000000000000000e+00  1.1957670028383436e+03 -2.0272418821431248e+01 0.0000000000000000e+00  1.0013584532276326e+03 -1.0205780529619318e+02 0.0000000000000000e+00  1.2000908934140473e+03 -4.3733428191775556e+02 0.0000000000000000e+00  1.1730130657259920e+03 -9.1654629925763711e+00 0.0000000000000000e+00  1.0579171281071265e+03 -1.4266872687777752e+02 0.0000000000000000e+00  1.2318704398509074e+03 -6.5720789982957328e+01 0.0000000000000000e+00  7.0067269661146656e+02 -3.4049806185200407e+02 0.0000000000000000e+00  1.1880053951567800e+03 -6.5132366940452640e+00 0.0000000000000000e+00  1.1477211291615486e+03 -1.4692207996572782e+02 0.0000000000000000e+00  1.0400566665578838e+03 -1.9203160887488625e+02 0.0000000000000000e+00  4.1262075864958625e+01 -2.3700234488955144e+02 0.0000000000000000e+00  1.1755788522038401e+03 -2.7602054170765471e+00 0.0000000000000000e+00  8.5884304530755117e+02 -1.0446393656518811e+02 0.0000000000000000e+00  8.6948714189381133e+02 -2.5067155158795646e+02 0.0000000000000000e+00  9.4070594349848352e+02 -2.5548896657865740e+02 0.0000000000000000e+00  1.0499136776567025e+03 -1.8620877346257703e+02 0.0000000000000000e+00  1.1852987069804735e+03 -4.2212126698783507e+01 0.0000000000000000e+00  1.6477810196658829e+03 -6.5394782854704874e+02 0.0000000000000000e+00  1.1604483531769984e+03 -2.1833968704053692e+02 0.0000000000000000e+00  1.0328502671627148e+03 -3.0494133481775560e+02 0.0000000000000000e+00  1.1832096491461916e+03 -1.4114305709566443e+01 0.0000000000000000e+00  1.1820149747885403e+03 -3.9526720581795016e-01 0.0000000000000000e+00  1.1663736283719713e+03 -1.8874963813184880e+01 0.0000000000000000e+00  1.1819997841568043e+03 -5.1466900206311541e+00 0.0000000000000000e+00  8.0347593345801579e+02 -7.4407433236998190e+02 0.0000000000000000e+00  1.1062475283546551e+03 -6.1653447702693910e+01 0.0000000000000000e+00  1.0390913564417924e+03 -1.4237570173318596e+02 0.0000000000000000e+00  8.3068979240924443e+02 -1.3235818650538718e+02 0.0000000000000000e+00  7.9615173316531775e+02 -1.8537960716902958e+02 0.0000000000000000e+00  8.1417218913641602e+02 -1.8733186592212166e+02 0.0000000000000000e+00  1.0550457863757442e+03 -1.6284745671969080e+02 0.0000000000000000e+00  1.1586204164158928e+03 -6.8652719528552751e+01 0.0000000000000000e+00  1.1848475123976607e+03 -2.4511708218898260e+01 0.0000000000000000e+00  1.1921477470750294e+03 -1.2607584831374048e+01 0.0000000000000000e+00  8.6111916084316738e+02 -2.4259339787642870e+02 0.0000000000000000e+00  1.2110007112344076e+03 -3.0803608320408106e+01 0.0000000000000000e+00  1.0139514399261501e+03 -1.4664470980462747e+02 0.0000000000000000e+00  1.1190425147401379e+03 -1.7455936182415056e+02 0.0000000000000000e+00  1.3022203590153713e+03 -1.3667594365556675e+02 0.0000000000000000e+00  1.1858106116708632e+03 -2.6206160062453319e+00 0.0000000000000000e+00  4.5336537113612508e+02 -4.4067423987969261e+02 0.0000000000000000e+00  8.2397617776822290e+02 -4.4611966808185070e+02 0.0000000000000000e+00  9.0209675328408298e+02 -4.2456126261206373e+02 0.0000000000000000e+00  7.3950022646299863e+02 -3.0002255840199467e+02 0.0000000000000000e+00  6.6925975558835250e+02 -4.5270266018287600e+02 0.0000000000000000e+00  1.1463585329866128e+03 -6.0602840333065342e+02 0.0000000000000000e+00  1.1780966470374995e+03 -7.5710049472446865e+00 0.0000000000000000e+00  6.7927521938542327e+02 -5.0296115278613422e+02 0.0000000000000000e+00  7.7612858627226956e+02 -4.1188440529420694e+02 0.0000000000000000e+00  9.4655831839605526e+02 -1.4971424290956179e+03 0.0000000000000000e+00  1.1797721258987638e+03 -4.1497794172332836e-01 0.0000000000000000e+00  1.1781392451423130e+03 -1.7085621822856469e+00 0.0000000000000000e+00  7.6569965418180857e+02 -2.7212702179937253e+02 0.0000000000000000e+00  1.1763454351579392e+03 -1.9413903925337220e+01 0.0000000000000000e+00  1.1598390224360721e+03 -2.7117501075594223e+01 0.0000000000000000e+00  1.0737063964625531e+03 -2.2914402680527058e+02 0.0000000000000000e+00  1.0084378113276010e+03 -2.7959238206555608e+02 0.0000000000000000e+00  1.1984015411611326e+03 -7.3674166756245157e+01 0.0000000000000000e+00  1.0617476638004514e+03 -1.7024464491001655e+02 0.0000000000000000e+00  1.0113751469869287e+03 -2.2909695409325693e+02 0.0000000000000000e+00  9.5229586065385422e+02 -1.9572693816679410e+02 0.0000000000000000e+00  1.1329216628384879e+03 -2.8150543168331023e+02 0.0000000000000000e+00  1.0297372481832649e+03 -1.7052975017633489e+02 0.0000000000000000e+00  3.5094244034341330e+01 -1.0812653089208415e+02 0.0000000000000000e+00  1.1836421678915465e+03 -2.3691363661408125e+00 0.0000000000000000e+00  8.1823454963971847e+02 -2.5531228760428144e+02 0.0000000000000000e+00  9.9572253684816064e+02 -1.4162155344181264e+02 0.0000000000000000e+00  1.1819018260616620e+03 -9.2093460284341475e+00 0.0000000000000000e+00  1.1795434386206443e+03 -3.5225960654024400e+00 0.0000000000000000e+00  6.7080456613108845e+02 -5.3698122514378156e+02 0.0000000000000000e+00  8.8753478500296194e+02 -1.3862515420843403e+02 0.0000000000000000e+00  1.1747873824519129e+03 -2.9463928467376775e+01 0.0000000000000000e+00  1.0771666794237624e+03 -1.8641629017976820e+02 0.0000000000000000e+00  1.0445034173636889e+03 -1.6232535198067214e+02 0.0000000000000000e+00  1.1776991116847412e+03 -1.2245674819044373e+01 0.0000000000000000e+00  1.1663252332452701e+03 -4.2425283783951613e+01 0.0000000000000000e+00  7.5591195649281099e+02 -2.4046433799917713e+02 0.0000000000000000e+00  1.0636332662662965e+03 -8.4364865326681212e+01 0.0000000000000000e+00  4.2067959172859639e+02 -7.0488680149002948e+02 0.0000000000000000e+00  1.2004814030903442e+03 -2.9361832522394820e+02 0.0000000000000000e+00  1.1130786905443931e+03 -4.1581566091903125e+02 0.0000000000000000e+00  8.8200754842734523e+02 -1.8580565076508731e+02 0.0000000000000000e+00  1.1865319074327342e+03 -1.0586532163852930e+01 0.0000000000000000e+00  1.2280058904617358e+03 -1.0644183596128325e+02 0.0000000000000000e+00  8.5407507055576593e+02 -1.7873937334037990e+02 0.0000000000000000e+00  9.3448510802578744e+02 -1.0951631706095256e+02 0.0000000000000000e+00  1.1948669012355131e+03 -3.0884450106646891e+01 0.0000000000000000e+00  1.1884605050825876e+03 -1.6887345425639996e+01 0.0000000000000000e+00  1.1847451378090309e+03 -6.5771751479831142e+00 0.0000000000000000e+00  7.3262012459913035e+02 -5.1360417373498353e+02 0.0000000000000000e+00  9.1184308444391468e+02 -2.1872017194211614e+02 0.0000000000000000e+00  9.3125229958172656e+02 -3.0922248744000279e+02 0.0000000000000000e+00  1.0340108360665552e+03 -1.5953124445908054e+02 0.0000000000000000e+00  9.9964340581837871e+02 -1.7670242797575182e+02 0.0000000000000000e+00  1.1209986788291596e+03 -9.2439369701087898e+01 0.0000000000000000e+00  1.2236158757483063e+03 -1.8805992511433948e+02 0.0000000000000000e+00  1.0896246004062532e+03 -2.2477705339717119e+02 0.0000000000000000e+00  1.1715546370548539e+03 -1.4416911687467477e+01 0.0000000000000000e+00  9.5684126383176988e+01 -4.0861137850978582e+02 0.0000000000000000e+00  2.5983625767926173e+02 -2.5507684987141361e+03 0.0000000000000000e+00  1.1744409252645098e+03 -6.4974571916269745e+00 0.0000000000000000e+00  1.3448675379834472e+03 -5.6612178799270407e+02 0.0000000000000000e+00  1.1315228233586929e+03 -4.9532145366049718e+01 0.0000000000000000e+00  1.0592232761744979e+03 -1.4225857569967218e+02 0.0000000000000000e+00  7.8742139552124070e+02 -1.0949406473314890e+02 0.0000000000000000e+00  7.6738230871410576e+02 -1.3852567792553998e+02 0.0000000000000000e+00  1.1837776072461754e+03 -4.7961838111528465e-01 0.0000000000000000e+00  1.1065863388686862e+03 -1.9218319481286130e+02 0.0000000000000000e+00  1.1152760040319799e+03 -3.0405955085803157e+02 0.0000000000000000e+00  8.0353031381680250e+02 -2.1166025429042037e+02 0.0000000000000000e+00  9.5498843151993071e+02 -1.6482448990942791e+02 0.0000000000000000e+00  7.2887078104583657e+02 -5.8698676024996814e+02 0.0000000000000000e+00  7.6269001488333026e+02 -1.8364761336333979e+02 0.0000000000000000e+00  1.0931736107937252e+03 -1.2668178345049928e+02 0.0000000000000000e+00  1.0187420577891476e+03 -1.8105048058544790e+02 0.0000000000000000e+00  1.2179268630100894e+03 -9.1760316692640970e+02 0.0000000000000000e+00  6.6659005884148223e+02 -3.8615429717593753e+02 0.0000000000000000e+00  1.1785799646090309e+03 -9.9425650277034237e+01 0.0000000000000000e+00  6.7174239966091193e+02 -3.4190452361145628e+02 0.0000000000000000e+00  1.0544525789508452e+03 -1.7060886874850695e+02 0.0000000000000000e+00  9.9284077103337063e+02 -3.8826878766142642e+02 0.0000000000000000e+00  7.6490971418017875e+02 -3.9198476908487754e+02 0.0000000000000000e+00  1.2264429423711852e+03 -4.7487114177215339e+01 0.0000000000000000e+00  1.2033191451568241e+03 -4.7126208560309081e+01 0.0000000000000000e+00  9.4906120215271278e+02 -4.1087763323461559e+02 0.0000000000000000e+00  1.1814642731192505e+03 -2.3971353258426498e+00 0.0000000000000000e+00  7.8021403704968372e+02 -4.0937666816919409e+02 0.0000000000000000e+00  4.5456294073801445e+02 -1.0744108123944879e+03 0.0000000000000000e+00  7.0556629082909251e+02 -5.2704972310054256e+02 0.0000000000000000e+00  1.0890985484080402e+03 -1.4714098922836155e+02 0.0000000000000000e+00  8.3322384268575979e+02 -2.1732408044666556e+02 0.0000000000000000e+00  7.9651462438938324e+02 -3.0652172897121085e+02 0.0000000000000000e+00  1.0026742011802997e+03 -2.1926912315878351e+02 0.0000000000000000e+00  8.2178343574456164e+02 -2.1387478661074292e+02 0.0000000000000000e+00  1.0706507831793956e+03 -1.5801499113046748e+02 0.0000000000000000e+00  1.1757318008018613e+03 -5.8337673404617469e+01 0.0000000000000000e+00  1.0503589715734536e+03 -1.7322701334249146e+02 0.0000000000000000e+00  7.6895875534139259e+02 -1.7084358038498050e+02 0.0000000000000000e+00  8.3908818231774922e+02 -1.4125698480280420e+02 0.0000000000000000e+00  1.0161709176150520e+03 -5.0054435664913973e+02 0.0000000000000000e+00  8.0554266714695962e+02 -1.5802769011593693e+02 0.0000000000000000e+00  7.7595199157167849e+02 -1.7066647300812321e+02 0.0000000000000000e+00  1.1842979982435675e+03 -4.1623513141443240e+00 0.0000000000000000e+00  1.1479901274801832e+03 -4.7140219085390029e+01 0.0000000000000000e+00  2.8651542874405038e+02 -4.3616338516714148e+02 0.0000000000000000e+00  6.6560034460927830e+02 -5.1886592972099606e+02 0.0000000000000000e+00  8.1207246290457795e+02 -1.9412976989193805e+02 0.0000000000000000e+00  9.2425658323439166e+02 -1.6098854417724209e+02 0.0000000000000000e+00  6.1185217373083242e+02 -5.0994407784844935e+02 0.0000000000000000e+00  1.4047750290596741e+03 -2.2911903170057261e+02 0.0000000000000000e+00  9.5661631152853818e+02 -2.4706549079171026e+02 0.0000000000000000e+00  1.0607325005643931e+03 -1.7260846964310460e+02 0.0000000000000000e+00  1.1860220882180361e+03 -1.1873248009856867e+00 0.0000000000000000e+00  1.1708655862054675e+03 -2.3662092108812182e+01 0.0000000000000000e+00  1.1042109923982653e+03 -2.1376023736997874e+02 0.0000000000000000e+00  1.0383821213565800e+03 -1.1589891343465153e+02 0.0000000000000000e+00  1.0653360119129404e+03 -1.8878185476742451e+02 0.0000000000000000e+00  7.9837924725972903e+02 -3.9219996988082227e+02 0.0000000000000000e+00  8.7439196906094855e+02 -5.7682448799101530e+02 0.0000000000000000e+00  9.7524214405195369e+02 -3.8046961132407614e+02 0.0000000000000000e+00  1.1039744482395572e+03 -1.8346217633898320e+02 0.0000000000000000e+00  8.8388386811965552e+02 -3.3535149455974488e+02 0.0000000000000000e+00  1.1723749558222573e+03 -2.6582944999384739e+02 0.0000000000000000e+00  1.1046060771892630e+03 -3.2832467059223541e+02 0.0000000000000000e+00  1.1872707290412784e+03 -5.1358796613338367e+00 0.0000000000000000e+00  1.1850361990493448e+03 -3.2518197593275119e+01 0.0000000000000000e+00  1.1817885945786645e+03 -1.9479922957863437e+01 0.0000000000000000e+00  1.1919908041423462e+03 -2.3640159184458767e+01 0.0000000000000000e+00  6.6861750444167001e+02 -3.1422837682230522e+02 0.0000000000000000e+00  7.0491464720935483e+02 -3.9345755317104522e+02 0.0000000000000000e+00  7.8484164243955104e+02 -6.0115980815849832e+02 0.0000000000000000e+00  7.2113988551606371e+02 -2.1534670731256637e+02 0.0000000000000000e+00  9.0336432360145795e+02 -2.0264554382200765e+02 0.0000000000000000e+00  6.8275198128217664e+02 -2.6201418015994273e+02 0.0000000000000000e+00  1.1799635033804798e+03 -1.6916582026284785e+00 0.0000000000000000e+00  1.1781723584311592e+03 -4.8048719888972888e+00 0.0000000000000000e+00  5.8020798880196332e+02 -4.1012369474813403e+02 0.0000000000000000e+00  1.2035366431007967e+03 -2.2374059963629232e+01 0.0000000000000000e+00  1.2643036075865787e+03 -9.0054070169580200e+01 0.0000000000000000e+00  1.1894330018762630e+03 -8.8417912812215356e+00 0.0000000000000000e+00  1.0379878283598759e+03 -1.4402484724271528e+02 0.0000000000000000e+00  1.1933330197500584e+03 -1.5986049875093839e+01 0.0000000000000000e+00  9.7765542437021850e+02 -1.6039030420127793e+02 0.0000000000000000e+00  1.1674959035475201e+03 -2.8644063073748466e+01 0.0000000000000000e+00  9.1240234027359850e+02 -5.9624486325971554e+02 0.0000000000000000e+00  5.7292970625428268e+02 -5.4217345024295207e+02 0.0000000000000000e+00  1.0146672040635931e+03 -1.4800014506536573e+02 0.0000000000000000e+00  8.5887322274052656e+02 -3.2768720478759269e+02 0.0000000000000000e+00  6.7442496325766422e+02 -3.2074901556577572e+02 0.0000000000000000e+00  6.8569927743109486e+02 -4.8808632212612537e+02 0.0000000000000000e+00  6.0535844050860283e+02 -4.5289531729022013e+02 0.0000000000000000e+00  1.0340156494920639e+03 -2.0447508600983696e+02 0.0000000000000000e+00  9.7164234586821146e+02 -1.5689183442707414e+02 0.0000000000000000e+00  1.0953620531073022e+03 -8.7989392093362028e+01 0.0000000000000000e+00  1.1787504630023907e+03 -1.6278393044185425e+01 0.0000000000000000e+00  1.2464440246812524e+03 -3.8666040717282925e+02 0.0000000000000000e+00  6.3009085929929859e+02 -5.6250437889308773e+02 0.0000000000000000e+00  1.0628911601888376e+03 -2.0136715575547922e+02 0.0000000000000000e+00  1.0399021384845141e+03 -2.6054011044116521e+02 0.0000000000000000e+00  1.1794585493865311e+03 -2.4264366502134457e+01 0.0000000000000000e+00  1.0513825973864264e+03 -1.5154244489040843e+02 0.0000000000000000e+00  1.1359205165373451e+03 -6.5435351395896006e+01 0.0000000000000000e+00  9.3619997866830158e+02 -2.6143430635915593e+02 0.0000000000000000e+00  8.4723228881728915e+02 -2.0028295933829375e+02 0.0000000000000000e+00  9.0827979766233852e+02 -1.4509704094343263e+02 0.0000000000000000e+00  1.1682387049580384e+03 -3.5278473669599521e+02 0.0000000000000000e+00  1.1748547366174030e+03 -1.5099777823988727e+01 0.0000000000000000e+00  8.3923786173533927e+02 -3.1487313377564698e+02 0.0000000000000000e+00  6.0820866223745782e+02 -3.9978595220338019e+02 0.0000000000000000e+00  7.3201243328373687e+02 -2.1140296858957439e+02 0.0000000000000000e+00  8.3338515243912025e+02 -1.0132484640062246e+03 0.0000000000000000e+00  7.5037182169244045e+02 -5.0601964414542567e+02 0.0000000000000000e+00  1.0000744339808471e+03 -7.1850698500342901e+02 0.0000000000000000e+00  1.1804173208159177e+03 -6.8979320417394909e+00 0.0000000000000000e+00  1.2138507239947457e+03 -4.8456282249026083e+02 0.0000000000000000e+00  1.1764212841358974e+03 -9.4839135199031919e+00 0.0000000000000000e+00  1.5437474170937280e+03 -1.2548862618046107e+03 0.0000000000000000e+00  9.4237111107599924e+02 -2.1378331690509822e+03 0.0000000000000000e+00  7.3037847279908635e+02 -5.0621365346360398e+02 0.0000000000000000e+00  8.7332372535743434e+02 -2.2536610255981591e+02 0.0000000000000000e+00  1.0220748740434715e+03 -2.4713859030118189e+02 0.0000000000000000e+00  1.1928786045743732e+03 -1.4157874427375896e+02 0.0000000000000000e+00  9.9694528812119165e+02 -1.3509777485336625e+02 0.0000000000000000e+00  1.2162053308286354e+03 -6.0823107993013494e+01 0.0000000000000000e+00  1.1233638633856629e+03 -2.5210668810929445e+02 0.0000000000000000e+00  1.06978502472