<?xml version="1.0"?>
<VTKFile type="UnstructuredGrid"  version="0.1"  >
<UnstructuredGrid>
<Piece  NumberOfPoints="1981" NumberOfCells="3668">
<Points>
<DataArray  type="Float64"  NumberOfComponents="3"  format="ascii">-2 0.5 0  -2 0 0  -0.5 0 0  -0.4968561049466213 -0.05598223805165387 0  -0.4874639560909119 -0.1112604669781569 0  -0.4719416651541838 -0.1651395309775835 0  -0.4504844339512096 -0.216941869558779 0  -0.4233620996141421 -0.2660160382576682 0  -0.3909157412340148 -0.3117449009293669 0  -0.3535533905932738 -0.3535533905932737 0  -0.3117449009293669 -0.3909157412340148 0  -0.2660160382576683 -0.4233620996141421 0  -0.2169418695587791 -0.4504844339512095 0  -0.1651395309775836 -0.4719416651541837 0  -0.1112604669781573 -0.4874639560909118 0  -0.05598223805165402 -0.4968561049466213 0  -9.184850993605148e-17 -0.5 0  2 -0.5 0  2 0 0  0.5 0 0  0.4968561049466213 0.05598223805165393 0  0.4874639560909118 0.1112604669781572 0  0.4719416651541838 0.1651395309775835 0  0.4504844339512096 0.2169418695587791 0  0.4233620996141421 0.2660160382576683 0  0.3909157412340149 0.3117449009293667 0  0.3535533905932738 0.3535533905932737 0  0.3117449009293668 0.3909157412340149 0  0.2660160382576683 0.4233620996141421 0  0.2169418695587791 0.4504844339512096 0  0.1651395309775837 0.4719416651541837 0  0.1112604669781572 0.4874639560909118 0  0.05598223805165384 0.4968561049466213 0  3.061616997868383e-17 0.5 0  0.1398708344106534 0.05418624992807294 0  0.15 0 0  0.1398708344106534 -0.05418624992807295 0  0.1108513375830988 -0.1010543465469837 0  0.06686075336648065 -0.1342744937032594 0  0.01384025391949536 -0.1493601264442552 0  -0.04104944851081246 -0.1442738464759228 0  -0.09039519545688858 -0.1197025840920358 0  -0.1275325703594421 -0.07896482443160337 0  -0.1474459649525853 -0.02756242767248552 0  -0.1474459649525853 0.02756242767248555 0  -0.1275325703594421 0.07896482443160341 0  -0.09039519545688844 0.1197025840920359 0  -0.04104944851081243 0.1442738464759228 0  0.0138402539194953 0.1493601264442552 0  0.06686075336648074 0.1342744937032593 0  0.1108513375830989 0.1010543465469836 0  -1 0.5 0  1 -0.5 0  -1.25 0 0  -0.5 0.5 0  1.25 0 0  0.4999999999999999 -0.5 0  -1.5 0.5 0  1.5 -0.5 0  -0.875 0 0  0.875 0 0  -1.625 0 0  1.625 0 0  0.6875 -0.2500000000000001 0  -0.6875 0.25 0  -2 0.25 0  1.75 -0.5 0  0.2499999999999999 -0.5 0  -0.3583969912126916 0.25 0  0.3749999999999999 -0.25 0  -1.0625 0.21875 0  1.0625 -0.21875 0  -1.75 0.5 0  -1.25 0.5 0  -1.375 0.25 0  1.4375 -0.21875 0  2 -0.25 0  1.25 -0.5 0  1.7375 -0.2375 0  -1.7375 0.2375 0  0.75 -0.5 0  -0.75 0.5 0  -0.25 0.5 0  -0.1570377317087672 0.3153742794659282 0  0.1249999999999999 -0.3338777090152827 0  -0.8826650943396226 0.3263561320754717 0  0.8826650943396227 -0.3263561320754717 0  1.25 -0.1897321428571428 0  1.4375 0 0  -1.4375 0 0  1.0625 0 0  -1.0625 0 0  -0.6875 0 0  0.6875 0 0  1.8125 0 0  -1.8125 0 0  0.3263011380546194 -0.06940056902730968 0  -1.554017857142857 0.1790178571428572 0  0.08847100915780901 0.3109433440851622 0  -0.2412983234264066 -0.2156373655531345 0  -1.625 0.3744047619047619 0  1.625 -0.3744047619047619 0  0.2743272717766799 0.1698562554772697 0  -0.3279338175957848 0.06764246763930631 0  -1.863068181818182 0.3630681818181818 0  2 -0.375 0  1.875 -0.5 0  -0.05442366733490933 -0.3203147637646457 0  1.321986607142857 -0.3448660714285714 0  1.125 -0.5 0  -1.209821428571429 0.3236607142857143 0  -0.5229484956063458 0.1781011282952406 0  0.9067445847815293 -0.1625224987586892 0  -0.8335714777578845 0.1642411083184135 0  -1.237063437253354 0.1627182813733228 0  -0.4947697009489606 0.3378596801347012 0  0.53125 -0.171875 0  0.5156249999999999 -0.3359375 0  -2 0.125 0  1.873225308641975 -0.1497685185185185 0  0.2341337966231563 -0.1911191776024666 0  -0.625 0.5 0  1.587453076345555 -0.2288757784711196 0  1.8125 -0.3654761904761905 0  -0.3326862624810256 -0.08869875963335262 0  -0.375 0.5 0  1.174048204529175 -0.319244854540162 0  -1.067618031042359 0.3674567846760797 0  -0.96875 0.109375 0  1.481463366596639 -0.3565498074229692 0  1.023503306098383 -0.3576535124663073 0  -0.2265388519390893 0.1866542405407749 0  0.625 -0.5 0  -1.852445652173913 0.1432065217391304 0  -1.375 0.5 0  -1.479101577239454 0.3541992113802732 0  0.2708871299591885 -0.3541935649795943 0  1.520204106978579 -0.109375 0  0.78125 -0.1026731411563172 0  -0.3125 0.3785994323952442 0  0.3749999999999999 -0.5 0  1.141568346088435 -0.109375 0  1.358431653911565 -0.109375 0  1.668712727161379 -0.1246887081867154 0  -1.673050595238095 0.1226339285714286 0  -1.34375 0 0  -1.431523109243698 0.1313182773109244 0  -0.7546231943577876 0.3660317014105531 0  -0.6233296454587935 0.3645528204344609 0  0.7546231943577878 -0.3660317014105531 0  0.6537002726710706 -0.125 0  -0.6441338591766993 0.125 0  1.375 -0.5 0  -2 0.375 0  -1.875 0.5 0  1.625 -0.5 0  -1.625 0.5 0  0.875 -0.5 0  -0.875 0.5 0  0.1249999999999999 -0.5 0  -0.125 0.5 0  2 -0.125 0  -1.125 0.5 0  -1.354082022940739 0.375 0  -0.03500388138134332 0.2732363193989585 0  0.3955099577726473 -0.3752808566622692 0  0.3596026196703111 0.0631070919012526 0  -0.0625 0.394061918116807 0  0.6342080192637126 -0.3582597885274255 0  -1.123666900137815 0.109375 0  -1.744588744588745 0.3803841991341991 0  0.2210084381421171 0.2925777566973838 0  0.8072251313743133 -0.2315819627814412 0  -0.1814335426834733 -0.3282792760620681 0  -0.9356634513979559 0.2218154628239019 0  0.4183753556420685 -0.1414382112841371 0  -0.1238894550978499 -0.2292394949250368 0  0.96875 0 0  1.013652292192466 -0.1102204462032291 0  -0.4393328341626322 0.09834605222123384 0  1.882206434331873 -0.2686982850037661 0  0.1426699461850768 0.2146575767791519 0  -1.886304127069339 0.251758104550396 0  0.2495743011762567 0.06264742837969955 0  -0.78125 0 0  0.04042933102838756 -0.2590839715717854 0  -1.53125 0 0  -0.5823692714154002 0.2663576540687616 0  -0.2594008044921133 0.2871583817002197 0  -0.9375 0.4157678007976423 0  0.9696186653311423 -0.2675997292662616 0  -0.7942971416386473 0.2646257048857303 0  0.06249999999999992 -0.4169388545076413 0  0.1874999999999999 -0.4169388545076413 0  -1.562839467699977 0.2864000626355251 0  -0.1875 0.4157529178973974 0  -0.1223698320396133 0.2179970721626365 0  1.770639498024741 -0.1399156735731578 0  0.9367002721196375 -0.4157324987180338 0  -1.90625 0 0  -0.2298618769854927 -0.08904896555277285 0  0.1397131066802196 -0.232031643549068 0  -0.4375 0.420861596936145 0  -0.3483554784186823 -0.1925292675214375 0  0.59375 0 0  -1.327632151430252 0.1057660692693074 0  -0.9830051201906395 0.3115204496273563 0  1.90625 0 0  1.236354269160391 -0.3993990952861421 0  -1.1875 0.4214935578661845 0  0.5625 -0.4247705455161483 0  -0.7349377422908023 0.1635199768201956 0  -1.583328550170068 0.08705835459183674 0  -1.640104497493491 0.2259991665335075 0  -1.467109316827997 0.2210671404637805 0  0.5896070530325394 -0.2690578560650788 0  0.3266472067106532 -0.167734762534917 0  -0.59375 0 0  -0.546875 0.08448914438556519 0  1.71875 0 0  1.156078290691277 -0.2031315651260504 0  1.337704613095238 -0.2433035714285714 0  1.236312294597949 -0.09486607142857142 0  0.1642123379155914 0.3701207892454864 0  0.2345507206108115 -0.04384512844718241 0  -0.4048861533022036 -0.02273791864794379 0  0.03798857341016919 0.3979165301900267 0  -0.4006523628802168 0.334179001454817 0  -0.1135990210174155 -0.393340785880617 0  1.906775738056482 -0.3598876272511091 0  1.720393990929705 -0.4044642857142857 0  -1.71875 0 0  1.15625 0 0  0.78125 0 0  1.53125 0 0  -0.96875 0 0  1.34375 0 0  -1.15625 0 0  1.142828909845958 -0.4078056758504979 0  0.40697192225457 -0.01923608979840619 0  -1.767708120728825 0.08966855818957545 0  -0.6882384924227143 0.4308047125515967 0  -0.3636785153797087 0.1553944795036722 0  -0.2291274285977749 0.08616080495998404 0  -0.281012338688557 -0.01202669255906096 0  0.3108677056378212 0.2586754570559801 0  -1.151751953043632 0.196872287087452 0  -0.5625 0.4330368698813529 0  0.6875 -0.4328910527173583 0  1.405021000845949 -0.3057191080886871 0  0.546875 -0.08025568181818182 0  0.3713523302229579 0.1599284134935842 0  -1.12196127795563 0.2911449911382941 0  -1.276991293863022 0.2522534749828799 0  1.255195006158927 -0.2798057638555942 0  -0.8388532729558951 0.4114132763440825 0  0.8388532729558953 -0.4114132763440825 0  -0.4557763550657601 0.2486174768248819 0  0.2049883534781638 -0.2934473685517857 0  0.3226059585583683 -0.4273378498573185 0  -1.426982449282418 0.4270508114904024 0  1.397702183984896 -0.4056170514003312 0  0.05467855045156804 0.2285245978493705 0  -0.272823163096586 -0.3046204408381326 0  -0.02656096412551515 -0.4126877256833236 0  -1.807235369718798 0.2933328120993839 0  0.1906985117418444 0.1399478964461678 0  -1.688085622354259 0.3115694793217502 0  1.659329587961023 -0.2879395206246994 0  -1.5625 0.437202380952381 0  1.546313524296827 -0.4210926184041992 0  -1.813279560389256 0.4363923695021056 0  -1.926524548924358 0.4265245489243581 0  -0.1751061200004134 -0.1578066000831913 0  0.2891187728554643 -0.268298186700636 0  0.4721679687499999 -0.2490234375 0  0.7276683718449491 -0.1720688736051095 0  0.4744973194747868 -0.4152356216385488 0  0.9322020604693165 -0.07914563824612769 0  -1.275602471792197 0.4154857864535745 0  -0.828125 0.07552171441918698 0  1.3125 -0.5 0  -1.931646474339171 0.178059096704675 0  -0.7167268019830385 0.08016211756451477 0  1.060414578698922 -0.4368616551407768 0  -1.6875 0.5 0  1.9375 -0.5 0  1.739833210773432 -0.3220974693894793 0  -2 0.3125 0  -1.207440692409131 0.07848980221212992 0  -0.04055821595704934 -0.2377097412335854 0  0.1922531441870086 -0.1190381071624572 0  1.509237778147088 -0.2717758217431455 0  0.8901922386429052 -0.2437760747352658 0  -1.498530569603453 0.07867879855510211 0  0.9849923856958628 -0.1870513965806273 0  1.515605916195201 -0.1906351698786736 0  1.439317880445072 -0.08458133750179306 0  1.932491348856277 -0.2050969650933771 0  1.828075655121533 -0.08087981225769847 0  1
[...]
<PointData  Vectors="f_39"> 
<DataArray  type="Float64"  Name="f_39"  NumberOfComponents="3" format="ascii">2.3998060130829671e+01 -3.3702942481682296e-01 0.0000000000000000e+00  3.2610849934375893e-02 -3.3924811732554994e-01 0.0000000000000000e+00  2.6968424030830569e+01 -9.4788364013980324e+00 0.0000000000000000e+00  2.6287123342478619e+01 -1.0216167757382234e+01 0.0000000000000000e+00  2.5997796644217186e+01 -1.0271048777158226e+01 0.0000000000000000e+00  2.5227592283125610e+01 -1.0362820092401298e+01 0.0000000000000000e+00  2.4917585632431908e+01 -9.9816911261448986e+00 0.0000000000000000e+00  2.4999189991372894e+01 -9.5025341088881916e+00 0.0000000000000000e+00  2.5049565508875009e+01 -9.2572377547939109e+00 0.0000000000000000e+00  2.5198600060902994e+01 -9.1283569135557130e+00 0.0000000000000000e+00  2.5488511914212218e+01 -9.0078344839406839e+00 0.0000000000000000e+00  2.5558648767468430e+01 -9.0308881338680038e+00 0.0000000000000000e+00  2.5603546775741080e+01 -9.0217062515579514e+00 0.0000000000000000e+00  2.5612565070401232e+01 -9.0256653056499694e+00 0.0000000000000000e+00  2.5600780005524996e+01 -9.0127337739881863e+00 0.0000000000000000e+00  2.5536491540553264e+01 -8.9521249650240780e+00 0.0000000000000000e+00  2.5439622062761842e+01 -8.8372885489561650e+00 0.0000000000000000e+00  2.7125146654824988e+01 -2.2100082273943382e-02 0.0000000000000000e+00  2.7867944037371359e+01 -3.9626087850816324e-02 0.0000000000000000e+00  2.7854974653531553e+01 -1.0435146929964555e+01 0.0000000000000000e+00  2.6915979780546532e+01 -1.1241935705459001e+01 0.0000000000000000e+00  2.6143006032174124e+01 -1.1135656131984254e+01 0.0000000000000000e+00  2.5701405813975079e+01 -1.0920187643280228e+01 0.0000000000000000e+00  2.5216707126577045e+01 -1.0601148153498672e+01 0.0000000000000000e+00  2.5056744201042914e+01 -1.0109577288819237e+01 0.0000000000000000e+00  2.5234642819508988e+01 -9.7950173888214476e+00 0.0000000000000000e+00  2.5319564435706486e+01 -9.6657560719876141e+00 0.0000000000000000e+00  2.5418373128135347e+01 -9.5644706031417304e+00 0.0000000000000000e+00  2.5452014592949681e+01 -9.5113107225834188e+00 0.0000000000000000e+00  2.5555499105932185e+01 -9.5355634260932227e+00 0.0000000000000000e+00  2.5524046457493501e+01 -9.5405126090216790e+00 0.0000000000000000e+00  2.5440959135204370e+01 -9.5356801546521446e+00 0.0000000000000000e+00  2.5384063101417411e+01 -9.5568184063196977e+00 0.0000000000000000e+00  2.5172950886986811e+01 -9.4221751797218634e+00 0.0000000000000000e+00  2.5927371743368766e+01 -9.8333204204183691e+00 0.0000000000000000e+00  2.5757155631372957e+01 -9.7219164393281012e+00 0.0000000000000000e+00  2.5467733839217193e+01 -9.2030475221424144e+00 0.0000000000000000e+00  2.5442553185281231e+01 -8.7071013853975199e+00 0.0000000000000000e+00  2.5820939982986665e+01 -8.2272520393000939e+00 0.0000000000000000e+00  2.6328855176345847e+01 -8.2603833267715192e+00 0.0000000000000000e+00  2.6419946667782895e+01 -9.2628428476196252e+00 0.0000000000000000e+00  2.6163659367780419e+01 -9.7223266153228067e+00 0.0000000000000000e+00  2.5751292521914017e+01 -9.8823036981362016e+00 0.0000000000000000e+00  2.5196716350809602e+01 -9.6985079808608496e+00 0.0000000000000000e+00  2.4911986854702896e+01 -9.2335344314253067e+00 0.0000000000000000e+00  2.5324225871768324e+01 -8.5486828181215326e+00 0.0000000000000000e+00  2.5744807716522743e+01 -8.4458450452436775e+00 0.0000000000000000e+00  2.6095773816843128e+01 -8.6811032129416201e+00 0.0000000000000000e+00  2.6229588785290467e+01 -9.3297248489228739e+00 0.0000000000000000e+00  2.6101845575845353e+01 -9.4530891910876829e+00 0.0000000000000000e+00  2.6039245687847405e+01 -9.8183150414679545e+00 0.0000000000000000e+00  3.0493725812893700e+01 -9.3057310720117847e+00 0.0000000000000000e+00  2.6176916621477051e+01 -3.7697034659114275e+00 0.0000000000000000e+00  1.9508906241086596e+01 -1.4761106169695660e+01 0.0000000000000000e+00  2.5791365449235023e+01 -7.6266215032239852e+00 0.0000000000000000e+00  2.8513540601207769e+01 -2.2328868753080284e+00 0.0000000000000000e+00  2.5681397514122811e+01 -6.7184228285591479e+00 0.0000000000000000e+00  3.8195424262216484e+01 -2.8575659528222051e+01 0.0000000000000000e+00  2.6654514027883650e+01 -1.0478796049178993e+00 0.0000000000000000e+00  2.4834274429661320e+01 -7.7639434439807751e+00 0.0000000000000000e+00  2.8970511168348988e+01 -4.1957839536047343e+00 0.0000000000000000e+00  1.3040556076392503e+01 -3.2538486609472208e+01 0.0000000000000000e+00  2.8084912245189749e+01 -7.0171732311247370e-01 0.0000000000000000e+00  2.7566837808186065e+01 -6.0161369932180149e+00 0.0000000000000000e+00  2.6744108797395153e+01 -8.2587209807663928e+00 0.0000000000000000e+00  1.3487834131227098e+01 -3.3739855081618203e-01 0.0000000000000000e+00  2.6975972640767477e+01 -3.4611315384768471e-01 0.0000000000000000e+00  2.5407134124263013e+01 -8.1181361888489025e+00 0.0000000000000000e+00  2.5910943172874099e+01 -8.5365036412782107e+00 0.0000000000000000e+00  2.6461816781606284e+01 -8.0622375308653496e+00 0.0000000000000000e+00  2.6466711703552594e+01 -1.1988586362468899e+01 0.0000000000000000e+00  2.7629747499147555e+01 -3.3532893400634456e+00 0.0000000000000000e+00  3.8386178874270946e+01 -4.4891119054221789e+01 0.0000000000000000e+00  3.4269144854507680e+01 -1.4909704486647252e+01 0.0000000000000000e+00  2.6581017072375229e+01 -2.1872732514389480e+01 0.0000000000000000e+00  2.7620907706259359e+01 -1.4528600051988059e+00 0.0000000000000000e+00  2.7476203951209900e+01 -5.1821141913479807e-02 0.0000000000000000e+00  2.6308577208786218e+01 -2.1967609124839531e+00 0.0000000000000000e+00  2.7497288610858373e+01 -5.5068006339040620e-01 0.0000000000000000e+00  2.2583563539023064e+01 -4.1408879665397258e+01 0.0000000000000000e+00  2.6059665983046116e+01 -5.3717429040877258e+00 0.0000000000000000e+00  2.7665760627811153e+01 -7.2708374905179562e+00 0.0000000000000000e+00  2.5294470027735656e+01 -8.3263264555463934e+00 0.0000000000000000e+00  2.5549326059603420e+01 -8.7061062441113339e+00 0.0000000000000000e+00  2.5736437024914927e+01 -8.4966157730079548e+00 0.0000000000000000e+00  2.7788875209932474e+01 -9.1061948924147025e+00 0.0000000000000000e+00  2.7039652275926493e+01 -4.4727193248015240e+00 0.0000000000000000e+00  2.7681332039619651e+01 -2.3320728570537277e+00 0.0000000000000000e+00  2.8396847722739970e+01 -1.3398280541658325e+00 0.0000000000000000e+00  1.5975624143925083e+01 -2.2127430395621193e+01 0.0000000000000000e+00  2.8761991734126742e+01 -3.1402531432220804e+00 0.0000000000000000e+00  2.2605515962664711e+01 -1.0169613379964662e+01 0.0000000000000000e+00  2.6908289949218123e+01 -7.5214568603022611e+00 0.0000000000000000e+00  2.9859186441579926e+01 -5.9115876063010271e+00 0.0000000000000000e+00  2.7940006898237620e+01 -2.5298501574818494e-01 0.0000000000000000e+00  1.1969110154611695e+01 -3.9989948163784376e+01 0.0000000000000000e+00  2.6528284077877700e+01 -9.2909649528128853e+00 0.0000000000000000e+00  2.1803570524176575e+01 -2.9706275633913467e+01 0.0000000000000000e+00  2.5685551158566142e+01 -9.4108285598805033e+00 0.0000000000000000e+00  2.5584465249214048e+01 -9.4317059410628570e+00 0.0000000000000000e+00  3.2241642385689531e+01 -3.6007468573209614e+01 0.0000000000000000e+00  2.7126589982284752e+01 -8.1828094515342253e-01 0.0000000000000000e+00  2.5787615108356572e+01 -9.9289056844742838e+00 0.0000000000000000e+00  2.5852117309430025e+01 -9.1514080656139143e+00 0.0000000000000000e+00  2.7955771281048687e+01 -5.4837855174208208e+01 0.0000000000000000e+00  2.7246511197965980e+01 -5.0219106365083095e-02 0.0000000000000000e+00  2.7083320475264305e+01 -1.7621475711216131e-01 0.0000000000000000e+00  2.5809432883528906e+01 -8.9398381162934779e+00 0.0000000000000000e+00  2.7026285252444833e+01 -1.9266063737580617e+00 0.0000000000000000e+00  2.6203914136148857e+01 -2.9342091775337868e+00 0.0000000000000000e+00  2.9086909449104208e+01 -1.5577512788779675e+01 0.0000000000000000e+00  2.6523209339260045e+01 -8.4732429402115450e+00 0.0000000000000000e+00  2.8162716089315577e+01 -4.2745139756203887e+00 0.0000000000000000e+00  2.6262355175057195e+01 -8.7271788473024543e+00 0.0000000000000000e+00  2.4221966580554181e+01 -1.6398652877486391e+01 0.0000000000000000e+00  2.6166571789502200e+01 -8.0472946941427264e+00 0.0000000000000000e+00  2.7849028834735552e+01 -7.4948866149456110e+00 0.0000000000000000e+00  2.6457486369785293e+01 -7.0497156084000148e+00 0.0000000000000000e+00  7.1188166284673500e+00 -3.5091355035316113e-01 0.0000000000000000e+00  2.7693945849445019e+01 -2.3546359996027069e-01 0.0000000000000000e+00  2.6003528357673073e+01 -8.6002865184478452e+00 0.0000000000000000e+00  2.6512574302961088e+01 -7.2135522396917260e+00 0.0000000000000000e+00  2.7538563176977096e+01 -9.2984796570140149e-01 0.0000000000000000e+00  2.7225073903176330e+01 -3.2915027105805911e-01 0.0000000000000000e+00  2.5641176031677535e+01 -9.7069365124318310e+00 0.0000000000000000e+00  2.5450623650925163e+01 -8.0101380824196724e+00 0.0000000000000000e+00  2.7043402860756878e+01 -2.7390400530089445e+00 0.0000000000000000e+00  2.9196264841868917e+01 -1.1659957326628154e+01 0.0000000000000000e+00  2.4826528374827511e+01 -9.8589767891855988e+00 0.0000000000000000e+00  2.7058460431309424e+01 -1.2763978236702109e+00 0.0000000000000000e+00  2.6849700452448825e+01 -3.5587123214709457e+00 0.0000000000000000e+00  2.5663996807134620e+01 -8.7299133657910186e+00 0.0000000000000000e+00  2.5917154966470203e+01 -6.0715006350641447e+00 0.0000000000000000e+00  1.4311335762389666e+01 -4.4035252413401295e+01 0.0000000000000000e+00  3.6949139760130308e+01 -2.0322671863899430e+01 0.0000000000000000e+00  3.1991282353910876e+01 -2.7298122289589337e+01 0.0000000000000000e+00  2.5849175341768543e+01 -8.1565353275217110e+00 0.0000000000000000e+00  2.7913487235590711e+01 -1.1017383512243106e+00 0.0000000000000000e+00  2.8772953858393048e+01 -5.0617662315913226e+00 0.0000000000000000e+00  2.5614348932894103e+01 -8.3655162960644223e+00 0.0000000000000000e+00  2.5414567620706904e+01 -7.5130170064191173e+00 0.0000000000000000e+00  2.8203050780580416e+01 -2.8292046098563080e+00 0.0000000000000000e+00  2.8084439080183760e+01 -1.7964515232480616e+00 0.0000000000000000e+00  2.7791564131995983e+01 -6.9674996952061075e-01 0.0000000000000000e+00  1.7954346933009390e+01 -3.6153174164434802e+01 0.0000000000000000e+00  1.7567007978513224e+01 -1.8874903663003156e+01 0.0000000000000000e+00  2.0530342200430955e+01 -2.3687537189130413e+01 0.0000000000000000e+00  2.7276129379745868e+01 -7.9892612354494617e+00 0.0000000000000000e+00  2.6622447544931749e+01 -7.8259928197702813e+00 0.0000000000000000e+00  2.6718249415757622e+01 -5.3977108821529471e+00 0.0000000000000000e+00  2.8558267970417909e+01 -6.3505376434578080e+00 0.0000000000000000e+00  2.6807384439746350e+01 -8.2259142186653005e+00 0.0000000000000000e+00  2.6471439257374165e+01 -1.6542998653215837e+00 0.0000000000000000e+00  1.9112609226258584e+01 -3.1359456899429122e-01 0.0000000000000000e+00  3.7078575521685742e+01 -5.9407251090806113e+01 0.0000000000000000e+00  2.6798705406472820e+01 -7.0502355224761060e-01 0.0000000000000000e+00  3.9081038140782049e+01 -3.6426165936721510e+01 0.0000000000000000e+00  2.6101728567096306e+01 -4.4136095922308032e+00 0.0000000000000000e+00  2.8993701186632542e+01 -7.7573478016775281e+00 0.0000000000000000e+00  2.5396086613545215e+01 -8.4863667795186561e+00 0.0000000000000000e+00  2.5038650305726737e+01 -8.7620327995112586e+00 0.0000000000000000e+00  2.7700760877795997e+01 -5.4612300838161959e-02 0.0000000000000000e+00  3.2340839698652452e+01 -1.2120192060092398e+01 0.0000000000000000e+00  3.2241589434844613e+01 -2.0814970974396413e+01 0.0000000000000000e+00  2.5744208287364195e+01 -9.0275458750243498e+00 0.0000000000000000e+00  2.5995980892415478e+01 -7.5653463586336711e+00 0.0000000000000000e+00  2.6309960086244747e+01 -1.0172713861973920e+01 0.0000000000000000e+00  2.5383707423907897e+01 -9.0335074594672449e+00 0.0000000000000000e+00  2.6716193876174497e+01 -6.1506295789225831e+00 0.0000000000000000e+00  2.3367008555700600e+01 -1.2481520349055442e+01 0.0000000000000000e+00  3.2041921406037567e+01 -4.4686193814178800e+01 0.0000000000000000e+00  2.5621184845097027e+01 -9.6343087190953831e+00 0.0000000000000000e+00  2.7766347353243024e+01 -4.9865268337962450e+00 0.0000000000000000e+00  2.5650685883738461e+01 -9.1378986511887952e+00 0.0000000000000000e+00  2.6389915662652104e+01 -9.7555389739658960e+00 0.0000000000000000e+00  2.7187170370083354e+01 -8.5914670077159006e+00 0.0000000000000000e+00  2.5904511784058691e+01 -9.2592794244530285e+00 0.0000000000000000e+00  2.8852439876358002e+01 -3.7827193762206122e+00 0.0000000000000000e+00  2.8341689126422725e+01 -3.5394121258441240e+00 0.0000000000000000e+00  2.6389773839808758e+01 -8.9924062305617625e+00 0.0000000000000000e+00  2.7445696452782425e+01 -2.3545354007482519e-01 0.0000000000000000e+00  2.5865041017552063e+01 -9.5912800752802205e+00 0.0000000000000000e+00  1.8344581741226591e+01 -5.0103646239928693e+01 0.0000000000000000e+00  2.6017108650904433e+01 -9.7992565063190185e+00 0.0000000000000000e+00  2.6067446400062931e+01 -7.2544647699066518e+00 0.0000000000000000e+00  2.5949441143892759e+01 -8.6193128266149142e+00 0.0000000000000000e+00  1.4294720649046580e+01 -2.7060800282194418e+01 0.0000000000000000e+00  2.6516036864288104e+01 -8.1881768893221434e+00 0.0000000000000000e+00  2.5682662314879909e+01 -8.5896860982763208e+00 0.0000000000000000e+00  2.9188675711298284e+01 -9.0199719946554371e+00 0.0000000000000000e+00  2.7427414798143772e+01 -3.9339291996966916e+00 0.0000000000000000e+00  2.6898643066087566e+01 -8.5656601920452413e+00 0.0000000000000000e+00  2.5560105981222144e+01 -8.6893125177952282e+00 0.0000000000000000e+00  2.5540352721889430e+01 -8.3274213528750671e+00 0.0000000000000000e+00  2.7738795092084622e+01 -3.1547124239849676e+01 0.0000000000000000e+00  2.5329812279495460e+01 -8.6258715489403333e+00 0.0000000000000000e+00  2.5735683716127564e+01 -8.6901108319263400e+00 0.0000000000000000e+00  2.7743150641477758e+01 -4.5498255201202636e-01 0.0000000000000000e+00  2.6413458232427256e+01 -4.1237297033266511e+00 0.0000000000000000e+00  1.0278171422734152e+01 -4.1010663008848759e+01 0.0000000000000000e+00  2.5575288890183852e+01 -9.6632836239597601e+00 0.0000000000000000e+00  2.5849409303149081e+01 -8.4999888345868495e+00 0.0000000000000000e+00  2.5793979921351610e+01 -7.9367335934093592e+00 0.0000000000000000e+00  2.5368531250630923e+01 -9.6738427163610083e+00 0.0000000000000000e+00  3.0003766647550254e+01 -7.2778588339805621e+00 0.0000000000000000e+00  2.0877559752784720e+01 -1.8978918018510413e+01 0.0000000000000000e+00  2.7834198830355493e+01 -1.0321712148126350e+01 0.0000000000000000e+00  2.7872700608507014e+01 -1.2390775933214004e-01 0.0000000000000000e+00  2.6682606196304398e+01 -2.4222744764879902e+00 0.0000000000000000e+00  3.1835529722257000e+01 -1.3995877266627957e+01 0.0000000000000000e+00  2.6080258832422306e+01 -6.5469297010620124e+00 0.0000000000000000e+00  2.6605684549053528e+01 -8.2531275730414642e+00 0.0000000000000000e+00  1.7063101513075246e+01 -3.0816090377989461e+01 0.0000000000000000e+00  2.3227286600725190e+01 -3.5432677009064030e+01 0.0000000000000000e+00  2.4324021229141902e+01 -2.6142834370962124e+01 0.0000000000000000e+00  2.7215320760179953e+01 -6.7232311006013701e+00 0.0000000000000000e+00  2.6528495983375326e+01 -8.6484017319894484e+00 0.0000000000000000e+00  2.7208270337970493e+01 -8.5241715814303074e+00 0.0000000000000000e+00  2.6914256025112628e+01 -8.6643437550102789e+00 0.0000000000000000e+00  2.8013091909160245e+01 -5.0935100314010084e-01 0.0000000000000000e+00  2.7708492044542194e+01 -2.8456696986080492e+00 0.0000000000000000e+00  2.7451195684604677e+01 -1.9147752114132257e+00 0.0000000000000000e+00  2.8181042956613567e+01 -2.3408382005569512e+00 0.0000000000000000e+00  2.5586087527876138e+01 -9.5221471802518405e+00 0.0000000000000000e+00  2.5983554527835651e+01 -9.2877863103735532e+00 0.0000000000000000e+00  2.6102092543232413e+01 -9.7178965285059764e+00 0.0000000000000000e+00  2.5442826188962073e+01 -9.2909902405093856e+00 0.0000000000000000e+00  2.5889017638104843e+01 -8.3037044300770333e+00 0.0000000000000000e+00  2.5652486107924894e+01 -8.9967259724020394e+00 0.0000000000000000e+00  2.7286183268722922e+01 -1.4985848105367167e-01 0.0000000000000000e+00  2.7104336713654881e+01 -4.7265774097656038e-01 0.0000000000000000e+00  1.2640689328089715e+01 -3.7169530513145325e+01 0.0000000000000000e+00  2.8637796994594332e+01 -2.6191862957420513e+00 0.0000000000000000e+00  2.9452611432817541e+01 -4.7887293076741786e+00 0.0000000000000000e+00  2.8195640497532509e+01 -9.4977149535776306e-01 0.0000000000000000e+00  2.3614647731310182e+01 -8.9305550825432150e+00 0.0000000000000000e+00  2.8474469577675659e+01 -1.8124590004089269e+00 0.0000000000000000e+00  2.0867077917504481e+01 -1.2059618924093984e+01 0.0000000000000000e+00  2.6617927314107042e+01 -2.8056596157763409e+00 0.0000000000000000e+00  2.7328390905766959e+01 -9.8202938826788273e+00 0.0000000000000000e+00  1.4964149610011988e+01 -3.9474167741808046e+01 0.0000000000000000e+00  2.7038129251967099e+01 -7.4359178869923905e+00 0.0000000000000000e+00  2.6021654249429062e+01 -8.8229479554923067e+00 0.0000000000000000e+00  2.5468171537419977e+01 -8.9382414431064099e+00 0.0000000000000000e+00  2.5611951749669515e+01 -9.5033787402380234e+00 0.0000000000000000e+00  2.5441715288193731e+01 -9.8600459934074642e+00 0.0000000000000000e+00  2.5493290535240657e+01 -1.4203149995381150e+01 0.0000000000000000e+00  2.6245113655502774e+01 -7.5863110514194343e+00 0.0000000000000000e+00  2.6308749223082895e+01 -5.6755726007658973e+00 0.0000000000000000e+00  2.7174801873704808e+01 -1.6751307783448455e+00 0.0000000000000000e+00  2.8751820533923876e+01 -8.1667405658702883e+00 0.0000000000000000e+00  2.5804777596099605e+01 -1.0320215268006907e+01 0.0000000000000000e+00  2.7762254856958585e+01 -1.3320630198982698e+01 0.0000000000000000e+00  2.6760410886042155e+01 -1.8193005621574400e+01 0.0000000000000000e+00  2.7296043744694234e+01 -2.3137896292202393e+00 0.0000000000000000e+00  2.8021708830063012e+01 -8.0721109103883837e+00 0.0000000000000000e+00  2.6471618293862338e+01 -4.7140894971084917e+00 0.0000000000000000e+00  2.6189761628177401e+01 -8.4515888559960022e+00 0.0000000000000000e+00  2.5899637067289905e+01 -8.3692171023228248e+00 0.0000000000000000e+00  2.5630697621618179e+01 -7.8927582689360758e+00 0.0000000000000000e+00  3.5343484792858902e+01 -2.3875551530477207e+01 0.0000000000000000e+00  2.6780730003918027e+01 -1.5838467462549535e+00 0.0000000000000000e+00  2.5926116294131425e+01 -9.3535062127898421e+00 0.0000000000000000e+00  2.5454732339626631e+01 -9.2150791115544983e+00 0.0000000000000000e+00  2.5602319518639909e+01 -8.8537238339548843e+00 0.0000000000000000e+00  2.4162330739310676e+01 -4.6668737426722252e+01 0.0000000000000000e+00  2.5916529491189646e+01 -9.7693875185957442e+00 0.0000000000000000e+00  2.7439099128337801e+01 -3.9280823958458193e+01 0.0000000000000000e+00  2.7338769176664734e+01 -7.1566646484339425e-01 0.0000000000000000e+00  3.6371241864303080e+01 -3.1506263839163534e+01 0.0000000000000000e+00  2.6898881099808143e+01 -1.0237262340429243e+00 0.0000000000000000e+00  3.5936705039694957e+01 -5.1146826874833366e+01 0.0000000000000000e+00  2.8644825949364172e+01 -6.0723075105048018e+01 0.0000000000000000e+00  2.5804690603346447e+01 -9.6195467325607300e+00 0.0000000000000000e+00  2.6029203211078396e+01 -8.2669920279376310e+00 0.0000000000000000e+00  2.6867407303554764e+01 -7.6120094213150811e+00 0.0000000000000000e+00  2.8220756161889962e+01 -5.7400935431058357e+00 0.0000000000000000e+00  2.5987467413151368e+01 -7.0283020255785713e+00 0.0000000000000000e+00  2.8649753173235560e+01 -4.0204532574237772e+00 0.0000000000000000e+00  3.3199926026005748e+01 -1.7062888661675512e+01 0.0000000000000000e+00  2.5649269118