<?xml version="1.0"?>
<VTKFile type="UnstructuredGrid"  version="0.1"  >
<UnstructuredGrid>
<Piece  NumberOfPoints="1981" NumberOfCells="3668">
<Points>
<DataArray  type="Float64"  NumberOfComponents="3"  format="ascii">-2 0.5 0  -2 0 0  -0.5 0 0  -0.4968561049466213 -0.05598223805165387 0  -0.4874639560909119 -0.1112604669781569 0  -0.4719416651541838 -0.1651395309775835 0  -0.4504844339512096 -0.216941869558779 0  -0.4233620996141421 -0.2660160382576682 0  -0.3909157412340148 -0.3117449009293669 0  -0.3535533905932738 -0.3535533905932737 0  -0.3117449009293669 -0.3909157412340148 0  -0.2660160382576683 -0.4233620996141421 0  -0.2169418695587791 -0.4504844339512095 0  -0.1651395309775836 -0.4719416651541837 0  -0.1112604669781573 -0.4874639560909118 0  -0.05598223805165402 -0.4968561049466213 0  -9.184850993605148e-17 -0.5 0  2 -0.5 0  2 0 0  0.5 0 0  0.4968561049466213 0.05598223805165393 0  0.4874639560909118 0.1112604669781572 0  0.4719416651541838 0.1651395309775835 0  0.4504844339512096 0.2169418695587791 0  0.4233620996141421 0.2660160382576683 0  0.3909157412340149 0.3117449009293667 0  0.3535533905932738 0.3535533905932737 0  0.3117449009293668 0.3909157412340149 0  0.2660160382576683 0.4233620996141421 0  0.2169418695587791 0.4504844339512096 0  0.1651395309775837 0.4719416651541837 0  0.1112604669781572 0.4874639560909118 0  0.05598223805165384 0.4968561049466213 0  3.061616997868383e-17 0.5 0  0.1398708344106534 0.05418624992807294 0  0.15 0 0  0.1398708344106534 -0.05418624992807295 0  0.1108513375830988 -0.1010543465469837 0  0.06686075336648065 -0.1342744937032594 0  0.01384025391949536 -0.1493601264442552 0  -0.04104944851081246 -0.1442738464759228 0  -0.09039519545688858 -0.1197025840920358 0  -0.1275325703594421 -0.07896482443160337 0  -0.1474459649525853 -0.02756242767248552 0  -0.1474459649525853 0.02756242767248555 0  -0.1275325703594421 0.07896482443160341 0  -0.09039519545688844 0.1197025840920359 0  -0.04104944851081243 0.1442738464759228 0  0.0138402539194953 0.1493601264442552 0  0.06686075336648074 0.1342744937032593 0  0.1108513375830989 0.1010543465469836 0  -1 0.5 0  1 -0.5 0  -1.25 0 0  -0.5 0.5 0  1.25 0 0  0.4999999999999999 -0.5 0  -1.5 0.5 0  1.5 -0.5 0  -0.875 0 0  0.875 0 0  -1.625 0 0  1.625 0 0  0.6875 -0.2500000000000001 0  -0.6875 0.25 0  -2 0.25 0  1.75 -0.5 0  0.2499999999999999 -0.5 0  -0.3583969912126916 0.25 0  0.3749999999999999 -0.25 0  -1.0625 0.21875 0  1.0625 -0.21875 0  -1.75 0.5 0  -1.25 0.5 0  -1.375 0.25 0  1.4375 -0.21875 0  2 -0.25 0  1.25 -0.5 0  1.7375 -0.2375 0  -1.7375 0.2375 0  0.75 -0.5 0  -0.75 0.5 0  -0.25 0.5 0  -0.1570377317087672 0.3153742794659282 0  0.1249999999999999 -0.3338777090152827 0  -0.8826650943396226 0.3263561320754717 0  0.8826650943396227 -0.3263561320754717 0  1.25 -0.1897321428571428 0  1.4375 0 0  -1.4375 0 0  1.0625 0 0  -1.0625 0 0  -0.6875 0 0  0.6875 0 0  1.8125 0 0  -1.8125 0 0  0.3263011380546194 -0.06940056902730968 0  -1.554017857142857 0.1790178571428572 0  0.08847100915780901 0.3109433440851622 0  -0.2412983234264066 -0.2156373655531345 0  -1.625 0.3744047619047619 0  1.625 -0.3744047619047619 0  0.2743272717766799 0.1698562554772697 0  -0.3279338175957848 0.06764246763930631 0  -1.863068181818182 0.3630681818181818 0  2 -0.375 0  1.875 -0.5 0  -0.05442366733490933 -0.3203147637646457 0  1.321986607142857 -0.3448660714285714 0  1.125 -0.5 0  -1.209821428571429 0.3236607142857143 0  -0.5229484956063458 0.1781011282952406 0  0.9067445847815293 -0.1625224987586892 0  -0.8335714777578845 0.1642411083184135 0  -1.237063437253354 0.1627182813733228 0  -0.4947697009489606 0.3378596801347012 0  0.53125 -0.171875 0  0.5156249999999999 -0.3359375 0  -2 0.125 0  1.873225308641975 -0.1497685185185185 0  0.2341337966231563 -0.1911191776024666 0  -0.625 0.5 0  1.587453076345555 -0.2288757784711196 0  1.8125 -0.3654761904761905 0  -0.3326862624810256 -0.08869875963335262 0  -0.375 0.5 0  1.174048204529175 -0.319244854540162 0  -1.067618031042359 0.3674567846760797 0  -0.96875 0.109375 0  1.481463366596639 -0.3565498074229692 0  1.023503306098383 -0.3576535124663073 0  -0.2265388519390893 0.1866542405407749 0  0.625 -0.5 0  -1.852445652173913 0.1432065217391304 0  -1.375 0.5 0  -1.479101577239454 0.3541992113802732 0  0.2708871299591885 -0.3541935649795943 0  1.520204106978579 -0.109375 0  0.78125 -0.1026731411563172 0  -0.3125 0.3785994323952442 0  0.3749999999999999 -0.5 0  1.141568346088435 -0.109375 0  1.358431653911565 -0.109375 0  1.668712727161379 -0.1246887081867154 0  -1.673050595238095 0.1226339285714286 0  -1.34375 0 0  -1.431523109243698 0.1313182773109244 0  -0.7546231943577876 0.3660317014105531 0  -0.6233296454587935 0.3645528204344609 0  0.7546231943577878 -0.3660317014105531 0  0.6537002726710706 -0.125 0  -0.6441338591766993 0.125 0  1.375 -0.5 0  -2 0.375 0  -1.875 0.5 0  1.625 -0.5 0  -1.625 0.5 0  0.875 -0.5 0  -0.875 0.5 0  0.1249999999999999 -0.5 0  -0.125 0.5 0  2 -0.125 0  -1.125 0.5 0  -1.354082022940739 0.375 0  -0.03500388138134332 0.2732363193989585 0  0.3955099577726473 -0.3752808566622692 0  0.3596026196703111 0.0631070919012526 0  -0.0625 0.394061918116807 0  0.6342080192637126 -0.3582597885274255 0  -1.123666900137815 0.109375 0  -1.744588744588745 0.3803841991341991 0  0.2210084381421171 0.2925777566973838 0  0.8072251313743133 -0.2315819627814412 0  -0.1814335426834733 -0.3282792760620681 0  -0.9356634513979559 0.2218154628239019 0  0.4183753556420685 -0.1414382112841371 0  -0.1238894550978499 -0.2292394949250368 0  0.96875 0 0  1.013652292192466 -0.1102204462032291 0  -0.4393328341626322 0.09834605222123384 0  1.882206434331873 -0.2686982850037661 0  0.1426699461850768 0.2146575767791519 0  -1.886304127069339 0.251758104550396 0  0.2495743011762567 0.06264742837969955 0  -0.78125 0 0  0.04042933102838756 -0.2590839715717854 0  -1.53125 0 0  -0.5823692714154002 0.2663576540687616 0  -0.2594008044921133 0.2871583817002197 0  -0.9375 0.4157678007976423 0  0.9696186653311423 -0.2675997292662616 0  -0.7942971416386473 0.2646257048857303 0  0.06249999999999992 -0.4169388545076413 0  0.1874999999999999 -0.4169388545076413 0  -1.562839467699977 0.2864000626355251 0  -0.1875 0.4157529178973974 0  -0.1223698320396133 0.2179970721626365 0  1.770639498024741 -0.1399156735731578 0  0.9367002721196375 -0.4157324987180338 0  -1.90625 0 0  -0.2298618769854927 -0.08904896555277285 0  0.1397131066802196 -0.232031643549068 0  -0.4375 0.420861596936145 0  -0.3483554784186823 -0.1925292675214375 0  0.59375 0 0  -1.327632151430252 0.1057660692693074 0  -0.9830051201906395 0.3115204496273563 0  1.90625 0 0  1.236354269160391 -0.3993990952861421 0  -1.1875 0.4214935578661845 0  0.5625 -0.4247705455161483 0  -0.7349377422908023 0.1635199768201956 0  -1.583328550170068 0.08705835459183674 0  -1.640104497493491 0.2259991665335075 0  -1.467109316827997 0.2210671404637805 0  0.5896070530325394 -0.2690578560650788 0  0.3266472067106532 -0.167734762534917 0  -0.59375 0 0  -0.546875 0.08448914438556519 0  1.71875 0 0  1.156078290691277 -0.2031315651260504 0  1.337704613095238 -0.2433035714285714 0  1.236312294597949 -0.09486607142857142 0  0.1642123379155914 0.3701207892454864 0  0.2345507206108115 -0.04384512844718241 0  -0.4048861533022036 -0.02273791864794379 0  0.03798857341016919 0.3979165301900267 0  -0.4006523628802168 0.334179001454817 0  -0.1135990210174155 -0.393340785880617 0  1.906775738056482 -0.3598876272511091 0  1.720393990929705 -0.4044642857142857 0  -1.71875 0 0  1.15625 0 0  0.78125 0 0  1.53125 0 0  -0.96875 0 0  1.34375 0 0  -1.15625 0 0  1.142828909845958 -0.4078056758504979 0  0.40697192225457 -0.01923608979840619 0  -1.767708120728825 0.08966855818957545 0  -0.6882384924227143 0.4308047125515967 0  -0.3636785153797087 0.1553944795036722 0  -0.2291274285977749 0.08616080495998404 0  -0.281012338688557 -0.01202669255906096 0  0.3108677056378212 0.2586754570559801 0  -1.151751953043632 0.196872287087452 0  -0.5625 0.4330368698813529 0  0.6875 -0.4328910527173583 0  1.405021000845949 -0.3057191080886871 0  0.546875 -0.08025568181818182 0  0.3713523302229579 0.1599284134935842 0  -1.12196127795563 0.2911449911382941 0  -1.276991293863022 0.2522534749828799 0  1.255195006158927 -0.2798057638555942 0  -0.8388532729558951 0.4114132763440825 0  0.8388532729558953 -0.4114132763440825 0  -0.4557763550657601 0.2486174768248819 0  0.2049883534781638 -0.2934473685517857 0  0.3226059585583683 -0.4273378498573185 0  -1.426982449282418 0.4270508114904024 0  1.397702183984896 -0.4056170514003312 0  0.05467855045156804 0.2285245978493705 0  -0.272823163096586 -0.3046204408381326 0  -0.02656096412551515 -0.4126877256833236 0  -1.807235369718798 0.2933328120993839 0  0.1906985117418444 0.1399478964461678 0  -1.688085622354259 0.3115694793217502 0  1.659329587961023 -0.2879395206246994 0  -1.5625 0.437202380952381 0  1.546313524296827 -0.4210926184041992 0  -1.813279560389256 0.4363923695021056 0  -1.926524548924358 0.4265245489243581 0  -0.1751061200004134 -0.1578066000831913 0  0.2891187728554643 -0.268298186700636 0  0.4721679687499999 -0.2490234375 0  0.7276683718449491 -0.1720688736051095 0  0.4744973194747868 -0.4152356216385488 0  0.9322020604693165 -0.07914563824612769 0  -1.275602471792197 0.4154857864535745 0  -0.828125 0.07552171441918698 0  1.3125 -0.5 0  -1.931646474339171 0.178059096704675 0  -0.7167268019830385 0.08016211756451477 0  1.060414578698922 -0.4368616551407768 0  -1.6875 0.5 0  1.9375 -0.5 0  1.739833210773432 -0.3220974693894793 0  -2 0.3125 0  -1.207440692409131 0.07848980221212992 0  -0.04055821595704934 -0.2377097412335854 0  0.1922531441870086 -0.1190381071624572 0  1.509237778147088 -0.2717758217431455 0  0.8901922386429052 -0.2437760747352658 0  -1.498530569603453 0.07867879855510211 0  0.9849923856958628 -0.1870513965806273 0  1.515605916195201 -0.1906351698786736 0  1.439317880445072 -0.08458133750179306 0  1.932491348856277 -0.2050969650933771 0  1.828075655121533 -0.08087981225769847 0  1
[...]
<PointData  Vectors="f_39"> 
<DataArray  type="Float64"  Name="f_39"  NumberOfComponents="3" format="ascii">2.3974920583469345e+01 -4.0102039371774628e-01 0.0000000000000000e+00  1.8172404417215852e-02 -2.0222701738671903e-01 0.0000000000000000e+00  1.6908980296219354e+01 -6.0323235718004318e+00 0.0000000000000000e+00  1.5871436434697117e+01 -6.5592900156118219e+00 0.0000000000000000e+00  1.5522776460065039e+01 -6.1432711812472265e+00 0.0000000000000000e+00  1.6063906344513377e+01 -5.5106616370260140e+00 0.0000000000000000e+00  1.6555296964618364e+01 -5.5915799553439820e+00 0.0000000000000000e+00  1.6787697185913540e+01 -6.0990725423977175e+00 0.0000000000000000e+00  1.6879295914267821e+01 -6.4115188143454258e+00 0.0000000000000000e+00  1.6815978252202079e+01 -6.5956131643053499e+00 0.0000000000000000e+00  1.6459085881535874e+01 -6.8801196675613312e+00 0.0000000000000000e+00  1.6314822683792944e+01 -6.8525060119420091e+00 0.0000000000000000e+00  1.6183774243701883e+01 -6.8421691559759648e+00 0.0000000000000000e+00  1.6029800426712185e+01 -6.7678473651980804e+00 0.0000000000000000e+00  1.5957070210915667e+01 -6.7287381512567768e+00 0.0000000000000000e+00  1.5760229488603773e+01 -6.5808840415993064e+00 0.0000000000000000e+00  1.5626772441824620e+01 -6.3670538144869804e+00 0.0000000000000000e+00  1.6655127206638518e+01 -6.1698046891336209e-03 0.0000000000000000e+00  1.6868442125031684e+01 -8.7626362704517156e-03 0.0000000000000000e+00  1.6635270372940926e+01 -6.6790808398702080e+00 0.0000000000000000e+00  1.5856315571990095e+01 -6.9065060005124623e+00 0.0000000000000000e+00  1.5537259299670060e+01 -6.4518130467389563e+00 0.0000000000000000e+00  1.5611512589700641e+01 -6.1897514528729429e+00 0.0000000000000000e+00  1.6186521711313176e+01 -5.9959398622058053e+00 0.0000000000000000e+00  1.6556881663003974e+01 -6.3466045088106906e+00 0.0000000000000000e+00  1.6470418071723341e+01 -6.7255768635471753e+00 0.0000000000000000e+00  1.6366725991819177e+01 -6.8773497178888965e+00 0.0000000000000000e+00  1.6208547713095513e+01 -7.0035795054473944e+00 0.0000000000000000e+00  1.6048835343263754e+01 -7.0701413325860241e+00 0.0000000000000000e+00  1.5801910717744750e+01 -6.9645017960294728e+00 0.0000000000000000e+00  1.5660344559453787e+01 -6.8513536021384951e+00 0.0000000000000000e+00  1.5502993018592694e+01 -6.7105545908773143e+00 0.0000000000000000e+00  1.5440233701046445e+01 -6.6395636368475834e+00 0.0000000000000000e+00  1.5286779148239203e+01 -6.3734447362350624e+00 0.0000000000000000e+00  1.5321716152956025e+01 -7.3720231709629909e+00 0.0000000000000000e+00  1.4634201299031261e+01 -6.5200633413033833e+00 0.0000000000000000e+00  1.4676602045928711e+01 -5.3128062095524076e+00 0.0000000000000000e+00  1.5328121404359974e+01 -4.6573185990652686e+00 0.0000000000000000e+00  1.6392809414505248e+01 -4.7222801685316860e+00 0.0000000000000000e+00  1.7022866814335735e+01 -5.5228092181386383e+00 0.0000000000000000e+00  1.6997103745413465e+01 -6.5792832462263844e+00 0.0000000000000000e+00  1.6579463954802740e+01 -7.0290712729141456e+00 0.0000000000000000e+00  1.5987870408152544e+01 -7.0716101785123548e+00 0.0000000000000000e+00  1.5161493005718764e+01 -6.6737913700355254e+00 0.0000000000000000e+00  1.4750466424273545e+01 -6.0484945366219236e+00 0.0000000000000000e+00  1.5108244344820415e+01 -5.0338788817754248e+00 0.0000000000000000e+00  1.5790526242737227e+01 -4.6946825056464672e+00 0.0000000000000000e+00  1.6685304016853699e+01 -4.9976988452116879e+00 0.0000000000000000e+00  1.6943826776255356e+01 -6.2287483188490125e+00 0.0000000000000000e+00  1.6891501269546470e+01 -6.5751054912415148e+00 0.0000000000000000e+00  1.5979424039901582e+01 -7.5714699866406834e+00 0.0000000000000000e+00  1.7666622578732241e+01 -3.2041633337206767e+00 0.0000000000000000e+00  1.5654433563043682e+01 -1.8763454909291057e+00 0.0000000000000000e+00  1.4067707470156083e+01 -4.9010093729268656e+00 0.0000000000000000e+00  1.5110508386209920e+01 -4.3585597091803807e+00 0.0000000000000000e+00  1.7438980218886073e+01 -9.2136160926866539e-01 0.0000000000000000e+00  1.5018674515933396e+01 -4.2594229635864789e+00 0.0000000000000000e+00  2.4533679495891967e+01 -1.0809975423937267e+01 0.0000000000000000e+00  1.6400975734554212e+01 -3.1601928035082677e-01 0.0000000000000000e+00  1.6629379648774023e+01 -4.2728506639810924e+00 0.0000000000000000e+00  1.7713410707457921e+01 -3.1452233962828613e+00 0.0000000000000000e+00  7.9878091236943884e+00 -1.6272501664510628e+01 0.0000000000000000e+00  1.6991303905598613e+01 -1.9344371375823002e-01 0.0000000000000000e+00  1.6339926015587530e+01 -3.6993252292781746e+00 0.0000000000000000e+00  1.6304334309519742e+01 -4.0909981610758992e+00 0.0000000000000000e+00  1.3517101267717250e+01 -3.4750314848790681e-01 0.0000000000000000e+00  1.6594715173707179e+01 -9.1256994821079657e-02 0.0000000000000000e+00  1.5022773127079732e+01 -5.6891226657245673e+00 0.0000000000000000e+00  1.5716673946703896e+01 -5.0914073401857971e+00 0.0000000000000000e+00  1.5756466100050000e+01 -5.1299205818847371e+00 0.0000000000000000e+00  1.6866763531606185e+01 -4.5793965013490405e+00 0.0000000000000000e+00  1.6794665996859731e+01 -1.8268207979778683e+00 0.0000000000000000e+00  2.8696188692395250e+01 -2.0994989190223567e+01 0.0000000000000000e+00  2.0269248531070449e+01 -4.7838312094328881e+00 0.0000000000000000e+00  1.7165081639968164e+01 -8.8737224102910623e+00 0.0000000000000000e+00  1.6831726025087121e+01 -5.6112389813418584e-01 0.0000000000000000e+00  1.6756352977048955e+01 -1.5057883412591021e-02 0.0000000000000000e+00  1.6048507903537587e+01 -8.6568049897880561e-01 0.0000000000000000e+00  1.6765324999530783e+01 -1.7547931028777478e-01 0.0000000000000000e+00  1.6527237089349789e+01 -2.2043022602258816e+01 0.0000000000000000e+00  1.5273720327928313e+01 -3.1513746710015091e+00 0.0000000000000000e+00  1.6018237650562533e+01 -3.2026369910236858e+00 0.0000000000000000e+00  1.5046841516787852e+01 -5.2497806586694100e+00 0.0000000000000000e+00  1.5545442191522737e+01 -5.4560327609313974e+00 0.0000000000000000e+00  1.5730236873977583e+01 -5.7112275932058640e+00 0.0000000000000000e+00  1.6772038062628326e+01 -3.7314452086641134e+00 0.0000000000000000e+00  1.6153901679160111e+01 -2.5694335986300794e+00 0.0000000000000000e+00  1.6881396354892459e+01 -1.0703308916593379e+00 0.0000000000000000e+00  1.7204876991469796e+01 -4.4245991750825114e-01 0.0000000000000000e+00  1.1067686990195092e+01 -8.4764872326971101e+00 0.0000000000000000e+00  1.7837813572105862e+01 -1.6646350255635669e+00 0.0000000000000000e+00  1.6162943272893280e+01 -3.8161999800496029e+00 0.0000000000000000e+00  1.6293917717253354e+01 -3.9055413732086501e+00 0.0000000000000000e+00  1.7283879350516944e+01 -3.5429660636551534e+00 0.0000000000000000e+00  1.6899393143681444e+01 -6.2122286176812487e-02 0.0000000000000000e+00  8.1152893592076882e+00 -2.3266561099073183e+01 0.0000000000000000e+00  1.5794954464449029e+01 -5.8779362328396063e+00 0.0000000000000000e+00  1.4616429437842942e+01 -1.3806109594051255e+01 0.0000000000000000e+00  1.6053818315650791e+01 -6.4920435834023200e+00 0.0000000000000000e+00  1.6340220213365054e+01 -6.5281481622273940e+00 0.0000000000000000e+00  2.2177424534031644e+01 -1.6610071607403043e+01 0.0000000000000000e+00  1.6622440265905503e+01 -2.6633218324712465e-01 0.0000000000000000e+00  1.6000065271573590e+01 -6.6754013109151167e+00 0.0000000000000000e+00  1.5823621462573437e+01 -5.6963336810674337e+00 0.0000000000000000e+00  2.2732105847422428e+01 -3.0349262208435821e+01 0.0000000000000000e+00  1.6687698952125587e+01 -1.4822010671815150e-02 0.0000000000000000e+00  1.6638999988717345e+01 -4.5328109152699053e-02 0.0000000000000000e+00  1.6222539912459041e+01 -6.3309512265215089e+00 0.0000000000000000e+00  1.6494706985891913e+01 -7.9328543779402982e-01 0.0000000000000000e+00  1.5844051485157859e+01 -1.3103269348558109e+00 0.0000000000000000e+00  1.8029383982574910e+01 -5.7071018062019867e+00 0.0000000000000000e+00  1.6352531107946053e+01 -4.7179943093693391e+00 0.0000000000000000e+00  1.7014132372641875e+01 -2.6778720909328051e+00 0.0000000000000000e+00  1.6542556956379311e+01 -4.1036349231787632e+00 0.0000000000000000e+00  1.6007516493105335e+01 -6.1547427877536007e+00 0.0000000000000000e+00  1.5673437179579592e+01 -4.5014511398950168e+00 0.0000000000000000e+00  1.6593742059713758e+01 -4.6254282940163041e+00 0.0000000000000000e+00  1.5615778294017492e+01 -4.4469860503819865e+00 0.0000000000000000e+00  7.1472214830547180e+00 -2.5341825098185616e-01 0.0000000000000000e+00  1.6823059456726369e+01 -6.8629623279482257e-02 0.0000000000000000e+00  1.5646550553684699e+01 -5.3555483369660326e+00 0.0000000000000000e+00  1.5425469303391521e+01 -3.7043446073890576e+00 0.0000000000000000e+00  1.6786011847532066e+01 -3.1996110985452531e-01 0.0000000000000000e+00  1.6674975340281911e+01 -9.7577580578734308e-02 0.0000000000000000e+00  1.5986385416487380e+01 -6.1933828377795228e+00 0.0000000000000000e+00  1.5023537085470172e+01 -4.8654267439325523e+00 0.0000000000000000e+00  1.6432308933622512e+01 -1.3091211224803581e+00 0.0000000000000000e+00  1.7674601732538640e+01 -4.2090503648401238e+00 0.0000000000000000e+00  1.6549558076319691e+01 -4.1753244941996455e+00 0.0000000000000000e+00  1.6562608512869041e+01 -4.5940756041605768e-01 0.0000000000000000e+00  1.6181166615075664e+01 -1.8665375189204438e+00 0.0000000000000000e+00  1.5591687568047989e+01 -5.2948157738366826e+00 0.0000000000000000e+00  1.5133443874640331e+01 -3.7252247120850379e+00 0.0000000000000000e+00  1.1019998491110874e+01 -2.5763736295586074e+01 0.0000000000000000e+00  2.2355035608643746e+01 -6.9387384295619485e+00 0.0000000000000000e+00  2.0653287362044903e+01 -1.1306102943745858e+01 0.0000000000000000e+00  1.5440699247706489e+01 -5.3741462324877318e+00 0.0000000000000000e+00  1.6955520245333950e+01 -3.7711729543962891e-01 0.0000000000000000e+00  1.7077587881718248e+01 -3.3317522799075601e+00 0.0000000000000000e+00  1.5377319052932732e+01 -5.1083665912365310e+00 0.0000000000000000e+00  1.4846695737563319e+01 -4.9558572335539290e+00 0.0000000000000000e+00  1.7281890693092322e+01 -1.4182934274034082e+00 0.0000000000000000e+00  1.7101905767482261e+01 -7.1864254861605381e-01 0.0000000000000000e+00  1.6877182785793575e+01 -2.1902432487492665e-01 0.0000000000000000e+00  1.2255188078178779e+01 -1.8837743982824669e+01 0.0000000000000000e+00  1.2463991142058392e+01 -6.7730688750715959e+00 0.0000000000000000e+00  1.3730695271418782e+01 -9.8470561038616786e+00 0.0000000000000000e+00  1.6238909091357897e+01 -3.6426005097950895e+00 0.0000000000000000e+00  1.5841672729790130e+01 -4.0379386308717269e+00 0.0000000000000000e+00  1.5795693093601024e+01 -3.2279297600917807e+00 0.0000000000000000e+00  1.6908888415028947e+01 -3.8753223418353238e+00 0.0000000000000000e+00  1.6593209577584457e+01 -4.2026466982661308e+00 0.0000000000000000e+00  1.6223114415249832e+01 -5.8011564872278432e-01 0.0000000000000000e+00  1.9140659468062587e+01 -4.1236691393278291e-01 0.0000000000000000e+00  3.0225907862073107e+01 -3.2024703770563519e+01 0.0000000000000000e+00  1.6506696898810894e+01 -1.9645861683342411e-01 0.0000000000000000e+00  2.6556344180370871e+01 -1.5467557089853599e+01 0.0000000000000000e+00  1.5422800108936073e+01 -2.3704362287807932e+00 0.0000000000000000e+00  1.6814137923910611e+01 -2.9462586011640597e+00 0.0000000000000000e+00  1.5339080178155795e+01 -6.1184978987315821e+00 0.0000000000000000e+00  1.5032298934748168e+01 -5.8240362575891496e+00 0.0000000000000000e+00  1.6821101624901612e+01 -1.4973574299858539e-02 0.0000000000000000e+00  1.8870761110493884e+01 -3.8184593681126917e+00 0.0000000000000000e+00  2.0027188332662892e+01 -7.8177967104561095e+00 0.0000000000000000e+00  1.6049804797376012e+01 -5.8243772007410897e+00 0.0000000000000000e+00  1.5354066634797665e+01 -4.8975401339863387e+00 0.0000000000000000e+00  1.5859085705107059e+01 -6.4381871481139257e+00 0.0000000000000000e+00  1.5520929589706755e+01 -5.9623855426612771e+00 0.0000000000000000e+00  1.5756722537059554e+01 -3.7815096198715277e+00 0.0000000000000000e+00  1.5977027099877931e+01 -4.6158995261724174e+00 0.0000000000000000e+00  2.3580726809854269e+01 -2.2398331007729006e+01 0.0000000000000000e+00  1.6097828166716734e+01 -6.7797269868993668e+00 0.0000000000000000e+00  1.6572163483089906e+01 -3.0563954015522548e+00 0.0000000000000000e+00  1.6314376460841846e+01 -6.6201145898402602e+00 0.0000000000000000e+00  1.6695991713340138e+01 -4.1246286808898311e+00 0.0000000000000000e+00  1.6240142663075765e+01 -5.4048831539439384e+00 0.0000000000000000e+00  1.6442226690601384e+01 -6.5614227967271495e+00 0.0000000000000000e+00  1.7914875432677668e+01 -2.5420062700516204e+00 0.0000000000000000e+00  1.7391453345395941e+01 -2.0780503615608623e+00 0.0000000000000000e+00  1.6359054179150530e+01 -5.4266554820054687e+00 0.0000000000000000e+00  1.6746774483378928e+01 -7.1222064347148700e-02 0.0000000000000000e+00  1.6269991610121789e+01 -6.7714613590533430e+00 0.0000000000000000e+00  1.5390008019327329e+01 -2.8988586886396895e+01 0.0000000000000000e+00  1.5511607242047267e+01 -6.6787368205150672e+00 0.0000000000000000e+00  1.6356670099002308e+01 -4.2509166837730188e+00 0.0000000000000000e+00  1.6295495104971113e+01 -5.7448959555580812e+00 0.0000000000000000e+00  9.2073770064283753e+00 -1.1704424776545160e+01 0.0000000000000000e+00  1.6075563253889477e+01 -4.3974401292920149e+00 0.0000000000000000e+00  1.5554290625023492e+01 -5.2490732464752696e+00 0.0000000000000000e+00  1.7211466933174801e+01 -3.3675958931130632e+00 0.0000000000000000e+00  1.6538826106741134e+01 -2.2371972965617002e+00 0.0000000000000000e+00  1.6480319279356589e+01 -3.9481780315941570e+00 0.0000000000000000e+00  1.5683140549281262e+01 -6.1283233857007238e+00 0.0000000000000000e+00  1.5324301874893752e+01 -5.7632839030585723e+00 0.0000000000000000e+00  1.8616683833871875e+01 -1.4450434943715580e+01 0.0000000000000000e+00  1.5231343913716961e+01 -5.5186185403888715e+00 0.0000000000000000e+00  1.5838039168517358e+01 -5.2000951841010510e+00 0.0000000000000000e+00  1.6845767084373858e+01 -1.3634578950809792e-01 0.0000000000000000e+00  1.5737104222125831e+01 -2.1929544780256207e+00 0.0000000000000000e+00  7.3185153273914976e+00 -2.4766514569067077e+01 0.0000000000000000e+00  1.5816320604670127e+01 -6.5529459363193610e+00 0.0000000000000000e+00  1.5947323161270205e+01 -5.3745656344066486e+00 0.0000000000000000e+00  1.5273669449180458e+01 -4.6300555060774791e+00 0.0000000000000000e+00  1.6335081978825421e+01 -6.1488330774033164e+00 0.0000000000000000e+00  1.7886864965231457e+01 -3.9892159201992659e+00 0.0000000000000000e+00  1.4241244974989611e+01 -7.2184948981442218e+00 0.0000000000000000e+00  1.7053136335581634e+01 -4.0112589503160656e+00 0.0000000000000000e+00  1.6869476097896214e+01 -2.9801765327597839e-02 0.0000000000000000e+00  1.6227035137724481e+01 -1.0593775785050992e+00 0.0000000000000000e+00  1.9026834472821321e+01 -4.7068389327626416e+00 0.0000000000000000e+00  1.5299259470835644e+01 -4.1040314050170119e+00 0.0000000000000000e+00  1.6452405442195204e+01 -4.1099367860676423e+00 0.0000000000000000e+00  1.1260282565937340e+01 -1.4742542985821739e+01 0.0000000000000000e+00  1.6165496586996639e+01 -1.7564537528862477e+01 0.0000000000000000e+00  1.6076429407167677e+01 -1.1336791880024853e+01 0.0000000000000000e+00  1.6121098111577215e+01 -4.1669774438988973e+00 0.0000000000000000e+00  1.5825662696509117e+01 -5.4425623432973360e+00 0.0000000000000000e+00  1.7492279045373412e+01 -4.0927818327114815e+00 0.0000000000000000e+00  1.7045271057114661e+01 -4.7481783608795238e+00 0.0000000000000000e+00  1.6942577483532201e+01 -1.3595696611192454e-01 0.0000000000000000e+00  1.6896600505915252e+01 -1.4350019858598333e+00 0.0000000000000000e+00  1.6741003439752852e+01 -8.1033605566619693e-01 0.0000000000000000e+00  1.7221346941093756e+01 -1.0490364540984829e+00 0.0000000000000000e+00  1.5901133224546093e+01 -6.7478209994131602e+00 0.0000000000000000e+00  1.5232344578792906e+01 -5.8017382411996312e+00 0.0000000000000000e+00  1.6067469631241124e+01 -6.1674308193407761e+00 0.0000000000000000e+00  1.5631618090074754e+01 -6.2952917329208233e+00 0.0000000000000000e+00  1.5552349594932252e+01 -4.8963778610525486e+00 0.0000000000000000e+00  1.6084086297832474e+01 -6.5486787989852013e+00 0.0000000000000000e+00  1.6698544837764160e+01 -4.3592016531923010e-02 0.0000000000000000e+00  1.6629797516806043e+01 -1.4014448563935269e-01 0.0000000000000000e+00  8.1143012252014000e+00 -2.0395679909255986e+01 0.0000000000000000e+00  1.7613919245936305e+01 -1.1992062324686912e+00 0.0000000000000000e+00  1.7350836843601414e+01 -3.5136823857568320e+00 0.0000000000000000e+00  1.7067723397714200e+01 -2.7858659625715465e-01 0.0000000000000000e+00  1.6605938851516161e+01 -3.9756502050370242e+00 0.0000000000000000e+00  1.7329843100651878e+01 -6.7254299318244781e-01 0.0000000000000000e+00  1.5181198859725818e+01 -4.0669261526159524e+00 0.0000000000000000e+00  1.6140372243206471e+01 -1.2963259885326497e+00 0.0000000000000000e+00  1.6347016254694935e+01 -6.2389396253763021e+00 0.0000000000000000e+00  1.0462271695439922e+01 -2.1963231623296409e+01 0.0000000000000000e+00  1.5823684275504906e+01 -3.5703283775340520e+00 0.0000000000000000e+00  1.5914088210284360e+01 -5.3352697480185318e+00 0.0000000000000000e+00  1.5344236065528705e+01 -5.5297998320215074e+00 0.0000000000000000e+00  1.5708812559574797e+01 -6.1791361172546342e+00 0.0000000000000000e+00  1.6279852593233930e+01 -6.6808836629099995e+00 0.0000000000000000e+00  1.6581923086042181e+01 -5.3063442118252802e+00 0.0000000000000000e+00  1.5461579712000528e+01 -4.0929876339997087e+00 0.0000000000000000e+00  1.5461496376051876e+01 -3.4082702955180149e+00 0.0000000000000000e+00  1.6593655530173908e+01 -6.7001221441659686e-01 0.0000000000000000e+00  1.7281351889299824e+01 -4.9598555885492530e+00 0.0000000000000000e+00  1.5948352956306083e+01 -6.4007536501635443e+00 0.0000000000000000e+00  1.7338503534795599e+01 -4.9241363948482944e+00 0.0000000000000000e+00  1.7142581190465894e+01 -6.9600308714477421e+00 0.0000000000000000e+00  1.6631063943701420e+01 -1.0468152447871413e+00 0.0000000000000000e+00  1.6540370344100236e+01 -3.3824335336169797e+00 0.0000000000000000e+00  1.5674374780661319e+01 -2.6740137700129361e+00 0.0000000000000000e+00  1.5924668900312978e+01 -4.8861912348700614e+00 0.0000000000000000e+00  1.5634120630741837e+01 -5.4502606071559834e+00 0.0000000000000000e+00  1.5131355110583694e+01 -5.2697086880776816e+00 0.0000000000000000e+00  2.1994828115564413e+01 -8.9420338567295126e+00 0.0000000000000000e+00  1.6399592344477231e+01 -5.8560395582350389e-01 0.0000000000000000e+00  1.6486815983292775e+01 -6.3740022699274386e+00 0.0000000000000000e+00  1.6480980405356359e+01 -6.6031302283428177e+00 0.0000000000000000e+00  1.5851845148627435e+01 -6.3301735865450501e+00 0.0000000000000000e+00  1.8634672816179879e+01 -2.5369891116538444e+01 0.0000000000000000e+00  1.6036535694073034e+01 -7.0103890008883853e+00 0.0000000000000000e+00  1.9533681857133434e+01 -1.9660679277746318e+01 0.0000000000000000e+00  1.6706342629854859e+01 -2.3471971942820072e-01 0.0000000000000000e+00  2.4093158803442517e+01 -1.3050511389154106e+01 0.0000000000000000e+00  1.6511541577140935e+01 -3.3310993907116754e-01 0.0000000000000000e+00  2.7515132782307521e+01 -2.6203935757548113e+01 0.0000000000000000e+00  2.4358738213812355e+01 -3.3644542959448081e+01 0.0000000000000000e+00  1.6241134616192568e+01 -6.7727376200161711e+00 0.0000000000000000e+00  1.5588106177749721e+01 -5.3176433561249050e+00 0.0000000000000000e+00  1.5957909407129199e+01 -4.7901631538687770e+00 0.0000000000000000e+00  1.6742242707695972e+01 -3.5710025812313932e+00 0.0000000000000000e+00  1.5268873302169650e+01 -4.4741644871938275e+00 0.0000000000000000e+00  1.7534708138643499e+01 -2.6979562447680601e+00 0.0000000000000000e+00  2.0053312984138273e+01 -5.9465505900551667e+00 0.0000000000000000e+00  1.6525598589