<?xml version="1.0"?>
<VTKFile type="UnstructuredGrid"  version="0.1"  >
<UnstructuredGrid>
<Piece  NumberOfPoints="1981" NumberOfCells="3668">
<Points>
<DataArray  type="Float64"  NumberOfComponents="3"  format="ascii">-2 0.5 0  -2 0 0  -0.5 0 0  -0.4968561049466213 -0.05598223805165387 0  -0.4874639560909119 -0.1112604669781569 0  -0.4719416651541838 -0.1651395309775835 0  -0.4504844339512096 -0.216941869558779 0  -0.4233620996141421 -0.2660160382576682 0  -0.3909157412340148 -0.3117449009293669 0  -0.3535533905932738 -0.3535533905932737 0  -0.3117449009293669 -0.3909157412340148 0  -0.2660160382576683 -0.4233620996141421 0  -0.2169418695587791 -0.4504844339512095 0  -0.1651395309775836 -0.4719416651541837 0  -0.1112604669781573 -0.4874639560909118 0  -0.05598223805165402 -0.4968561049466213 0  -9.184850993605148e-17 -0.5 0  2 -0.5 0  2 0 0  0.5 0 0  0.4968561049466213 0.05598223805165393 0  0.4874639560909118 0.1112604669781572 0  0.4719416651541838 0.1651395309775835 0  0.4504844339512096 0.2169418695587791 0  0.4233620996141421 0.2660160382576683 0  0.3909157412340149 0.3117449009293667 0  0.3535533905932738 0.3535533905932737 0  0.3117449009293668 0.3909157412340149 0  0.2660160382576683 0.4233620996141421 0  0.2169418695587791 0.4504844339512096 0  0.1651395309775837 0.4719416651541837 0  0.1112604669781572 0.4874639560909118 0  0.05598223805165384 0.4968561049466213 0  3.061616997868383e-17 0.5 0  0.1398708344106534 0.05418624992807294 0  0.15 0 0  0.1398708344106534 -0.05418624992807295 0  0.1108513375830988 -0.1010543465469837 0  0.06686075336648065 -0.1342744937032594 0  0.01384025391949536 -0.1493601264442552 0  -0.04104944851081246 -0.1442738464759228 0  -0.09039519545688858 -0.1197025840920358 0  -0.1275325703594421 -0.07896482443160337 0  -0.1474459649525853 -0.02756242767248552 0  -0.1474459649525853 0.02756242767248555 0  -0.1275325703594421 0.07896482443160341 0  -0.09039519545688844 0.1197025840920359 0  -0.04104944851081243 0.1442738464759228 0  0.0138402539194953 0.1493601264442552 0  0.06686075336648074 0.1342744937032593 0  0.1108513375830989 0.1010543465469836 0  -1 0.5 0  1 -0.5 0  -1.25 0 0  -0.5 0.5 0  1.25 0 0  0.4999999999999999 -0.5 0  -1.5 0.5 0  1.5 -0.5 0  -0.875 0 0  0.875 0 0  -1.625 0 0  1.625 0 0  0.6875 -0.2500000000000001 0  -0.6875 0.25 0  -2 0.25 0  1.75 -0.5 0  0.2499999999999999 -0.5 0  -0.3583969912126916 0.25 0  0.3749999999999999 -0.25 0  -1.0625 0.21875 0  1.0625 -0.21875 0  -1.75 0.5 0  -1.25 0.5 0  -1.375 0.25 0  1.4375 -0.21875 0  2 -0.25 0  1.25 -0.5 0  1.7375 -0.2375 0  -1.7375 0.2375 0  0.75 -0.5 0  -0.75 0.5 0  -0.25 0.5 0  -0.1570377317087672 0.3153742794659282 0  0.1249999999999999 -0.3338777090152827 0  -0.8826650943396226 0.3263561320754717 0  0.8826650943396227 -0.3263561320754717 0  1.25 -0.1897321428571428 0  1.4375 0 0  -1.4375 0 0  1.0625 0 0  -1.0625 0 0  -0.6875 0 0  0.6875 0 0  1.8125 0 0  -1.8125 0 0  0.3263011380546194 -0.06940056902730968 0  -1.554017857142857 0.1790178571428572 0  0.08847100915780901 0.3109433440851622 0  -0.2412983234264066 -0.2156373655531345 0  -1.625 0.3744047619047619 0  1.625 -0.3744047619047619 0  0.2743272717766799 0.1698562554772697 0  -0.3279338175957848 0.06764246763930631 0  -1.863068181818182 0.3630681818181818 0  2 -0.375 0  1.875 -0.5 0  -0.05442366733490933 -0.3203147637646457 0  1.321986607142857 -0.3448660714285714 0  1.125 -0.5 0  -1.209821428571429 0.3236607142857143 0  -0.5229484956063458 0.1781011282952406 0  0.9067445847815293 -0.1625224987586892 0  -0.8335714777578845 0.1642411083184135 0  -1.237063437253354 0.1627182813733228 0  -0.4947697009489606 0.3378596801347012 0  0.53125 -0.171875 0  0.5156249999999999 -0.3359375 0  -2 0.125 0  1.873225308641975 -0.1497685185185185 0  0.2341337966231563 -0.1911191776024666 0  -0.625 0.5 0  1.587453076345555 -0.2288757784711196 0  1.8125 -0.3654761904761905 0  -0.3326862624810256 -0.08869875963335262 0  -0.375 0.5 0  1.174048204529175 -0.319244854540162 0  -1.067618031042359 0.3674567846760797 0  -0.96875 0.109375 0  1.481463366596639 -0.3565498074229692 0  1.023503306098383 -0.3576535124663073 0  -0.2265388519390893 0.1866542405407749 0  0.625 -0.5 0  -1.852445652173913 0.1432065217391304 0  -1.375 0.5 0  -1.479101577239454 0.3541992113802732 0  0.2708871299591885 -0.3541935649795943 0  1.520204106978579 -0.109375 0  0.78125 -0.1026731411563172 0  -0.3125 0.3785994323952442 0  0.3749999999999999 -0.5 0  1.141568346088435 -0.109375 0  1.358431653911565 -0.109375 0  1.668712727161379 -0.1246887081867154 0  -1.673050595238095 0.1226339285714286 0  -1.34375 0 0  -1.431523109243698 0.1313182773109244 0  -0.7546231943577876 0.3660317014105531 0  -0.6233296454587935 0.3645528204344609 0  0.7546231943577878 -0.3660317014105531 0  0.6537002726710706 -0.125 0  -0.6441338591766993 0.125 0  1.375 -0.5 0  -2 0.375 0  -1.875 0.5 0  1.625 -0.5 0  -1.625 0.5 0  0.875 -0.5 0  -0.875 0.5 0  0.1249999999999999 -0.5 0  -0.125 0.5 0  2 -0.125 0  -1.125 0.5 0  -1.354082022940739 0.375 0  -0.03500388138134332 0.2732363193989585 0  0.3955099577726473 -0.3752808566622692 0  0.3596026196703111 0.0631070919012526 0  -0.0625 0.394061918116807 0  0.6342080192637126 -0.3582597885274255 0  -1.123666900137815 0.109375 0  -1.744588744588745 0.3803841991341991 0  0.2210084381421171 0.2925777566973838 0  0.8072251313743133 -0.2315819627814412 0  -0.1814335426834733 -0.3282792760620681 0  -0.9356634513979559 0.2218154628239019 0  0.4183753556420685 -0.1414382112841371 0  -0.1238894550978499 -0.2292394949250368 0  0.96875 0 0  1.013652292192466 -0.1102204462032291 0  -0.4393328341626322 0.09834605222123384 0  1.882206434331873 -0.2686982850037661 0  0.1426699461850768 0.2146575767791519 0  -1.886304127069339 0.251758104550396 0  0.2495743011762567 0.06264742837969955 0  -0.78125 0 0  0.04042933102838756 -0.2590839715717854 0  -1.53125 0 0  -0.5823692714154002 0.2663576540687616 0  -0.2594008044921133 0.2871583817002197 0  -0.9375 0.4157678007976423 0  0.9696186653311423 -0.2675997292662616 0  -0.7942971416386473 0.2646257048857303 0  0.06249999999999992 -0.4169388545076413 0  0.1874999999999999 -0.4169388545076413 0  -1.562839467699977 0.2864000626355251 0  -0.1875 0.4157529178973974 0  -0.1223698320396133 0.2179970721626365 0  1.770639498024741 -0.1399156735731578 0  0.9367002721196375 -0.4157324987180338 0  -1.90625 0 0  -0.2298618769854927 -0.08904896555277285 0  0.1397131066802196 -0.232031643549068 0  -0.4375 0.420861596936145 0  -0.3483554784186823 -0.1925292675214375 0  0.59375 0 0  -1.327632151430252 0.1057660692693074 0  -0.9830051201906395 0.3115204496273563 0  1.90625 0 0  1.236354269160391 -0.3993990952861421 0  -1.1875 0.4214935578661845 0  0.5625 -0.4247705455161483 0  -0.7349377422908023 0.1635199768201956 0  -1.583328550170068 0.08705835459183674 0  -1.640104497493491 0.2259991665335075 0  -1.467109316827997 0.2210671404637805 0  0.5896070530325394 -0.2690578560650788 0  0.3266472067106532 -0.167734762534917 0  -0.59375 0 0  -0.546875 0.08448914438556519 0  1.71875 0 0  1.156078290691277 -0.2031315651260504 0  1.337704613095238 -0.2433035714285714 0  1.236312294597949 -0.09486607142857142 0  0.1642123379155914 0.3701207892454864 0  0.2345507206108115 -0.04384512844718241 0  -0.4048861533022036 -0.02273791864794379 0  0.03798857341016919 0.3979165301900267 0  -0.4006523628802168 0.334179001454817 0  -0.1135990210174155 -0.393340785880617 0  1.906775738056482 -0.3598876272511091 0  1.720393990929705 -0.4044642857142857 0  -1.71875 0 0  1.15625 0 0  0.78125 0 0  1.53125 0 0  -0.96875 0 0  1.34375 0 0  -1.15625 0 0  1.142828909845958 -0.4078056758504979 0  0.40697192225457 -0.01923608979840619 0  -1.767708120728825 0.08966855818957545 0  -0.6882384924227143 0.4308047125515967 0  -0.3636785153797087 0.1553944795036722 0  -0.2291274285977749 0.08616080495998404 0  -0.281012338688557 -0.01202669255906096 0  0.3108677056378212 0.2586754570559801 0  -1.151751953043632 0.196872287087452 0  -0.5625 0.4330368698813529 0  0.6875 -0.4328910527173583 0  1.405021000845949 -0.3057191080886871 0  0.546875 -0.08025568181818182 0  0.3713523302229579 0.1599284134935842 0  -1.12196127795563 0.2911449911382941 0  -1.276991293863022 0.2522534749828799 0  1.255195006158927 -0.2798057638555942 0  -0.8388532729558951 0.4114132763440825 0  0.8388532729558953 -0.4114132763440825 0  -0.4557763550657601 0.2486174768248819 0  0.2049883534781638 -0.2934473685517857 0  0.3226059585583683 -0.4273378498573185 0  -1.426982449282418 0.4270508114904024 0  1.397702183984896 -0.4056170514003312 0  0.05467855045156804 0.2285245978493705 0  -0.272823163096586 -0.3046204408381326 0  -0.02656096412551515 -0.4126877256833236 0  -1.807235369718798 0.2933328120993839 0  0.1906985117418444 0.1399478964461678 0  -1.688085622354259 0.3115694793217502 0  1.659329587961023 -0.2879395206246994 0  -1.5625 0.437202380952381 0  1.546313524296827 -0.4210926184041992 0  -1.813279560389256 0.4363923695021056 0  -1.926524548924358 0.4265245489243581 0  -0.1751061200004134 -0.1578066000831913 0  0.2891187728554643 -0.268298186700636 0  0.4721679687499999 -0.2490234375 0  0.7276683718449491 -0.1720688736051095 0  0.4744973194747868 -0.4152356216385488 0  0.9322020604693165 -0.07914563824612769 0  -1.275602471792197 0.4154857864535745 0  -0.828125 0.07552171441918698 0  1.3125 -0.5 0  -1.931646474339171 0.178059096704675 0  -0.7167268019830385 0.08016211756451477 0  1.060414578698922 -0.4368616551407768 0  -1.6875 0.5 0  1.9375 -0.5 0  1.739833210773432 -0.3220974693894793 0  -2 0.3125 0  -1.207440692409131 0.07848980221212992 0  -0.04055821595704934 -0.2377097412335854 0  0.1922531441870086 -0.1190381071624572 0  1.509237778147088 -0.2717758217431455 0  0.8901922386429052 -0.2437760747352658 0  -1.498530569603453 0.07867879855510211 0  0.9849923856958628 -0.1870513965806273 0  1.515605916195201 -0.1906351698786736 0  1.439317880445072 -0.08458133750179306 0  1.932491348856277 -0.2050969650933771 0  1.828075655121533 -0.08087981225769847 0  1
[...]
<PointData  Vectors="f_39"> 
<DataArray  type="Float64"  Name="f_39"  NumberOfComponents="3" format="ascii">3.1449677859426323e+01 -5.2201533752037982e+01 0.0000000000000000e+00  2.4644690957951676e+00 -5.9561710515972814e+00 0.0000000000000000e+00  2.6567267972433456e+02 -1.4515529153216340e+02 0.0000000000000000e+00  2.2434496183670549e+02 -1.6641676208218126e+02 0.0000000000000000e+00  2.0766603716750797e+02 -1.5781323936253352e+02 0.0000000000000000e+00  1.8789062328771550e+02 -1.4641979858558233e+02 0.0000000000000000e+00  1.8250245884057657e+02 -1.3276565116411314e+02 0.0000000000000000e+00  1.8306693043813831e+02 -1.2221968806621862e+02 0.0000000000000000e+00  1.8308706481872215e+02 -1.1353393810305050e+02 0.0000000000000000e+00  1.8523675013910204e+02 -1.0772412121854788e+02 0.0000000000000000e+00  1.9058465286722520e+02 -9.4240220559376979e+01 0.0000000000000000e+00  1.9174976359184836e+02 -9.0181628634064722e+01 0.0000000000000000e+00  1.9506504484359147e+02 -8.3546924340485404e+01 0.0000000000000000e+00  1.9805613655062820e+02 -7.7263206705786175e+01 0.0000000000000000e+00  2.0076447911631698e+02 -7.2459467253586453e+01 0.0000000000000000e+00  2.0739359187309029e+02 -6.0923824381175166e+01 0.0000000000000000e+00  2.1506030379046669e+02 -5.9564498315556186e+01 0.0000000000000000e+00  3.0978330376922077e+02 7.9798933070750130e-02 0.0000000000000000e+00  3.1541717472826645e+02 -3.6828798877183894e-01 0.0000000000000000e+00  2.7897172872356367e+02 -1.6716537285186234e+02 0.0000000000000000e+00  2.3526410960303818e+02 -1.8057164263336210e+02 0.0000000000000000e+00  2.1077039970038410e+02 -1.6662574882866008e+02 0.0000000000000000e+00  2.0117063298222178e+02 -1.5589346882148561e+02 0.0000000000000000e+00  1.9138939051945565e+02 -1.4121353042021647e+02 0.0000000000000000e+00  1.8858675679992285e+02 -1.2864570807988474e+02 0.0000000000000000e+00  1.9275354319263175e+02 -1.1803271866563111e+02 0.0000000000000000e+00  1.9401470670007930e+02 -1.1169157061157827e+02 0.0000000000000000e+00  1.9629764358157450e+02 -1.0420028878133594e+02 0.0000000000000000e+00  1.9517562545201523e+02 -1.0007308351315531e+02 0.0000000000000000e+00  2.0239818818190571e+02 -8.9181807001885318e+01 0.0000000000000000e+00  2.0327148790952671e+02 -8.3465784975129452e+01 0.0000000000000000e+00  2.0875691646811131e+02 -7.6615635201440185e+01 0.0000000000000000e+00  2.1244108312557998e+02 -7.3680325237190871e+01 0.0000000000000000e+00  2.2203255925882996e+02 -6.7449333673533388e+01 0.0000000000000000e+00  2.2343610772799656e+02 -1.3194357696289404e+02 0.0000000000000000e+00  2.1544972564604322e+02 -1.2027958193238901e+02 0.0000000000000000e+00  2.0970861451169168e+02 -9.2775353752735143e+01 0.0000000000000000e+00  2.1756259915637321e+02 -7.3479844138403067e+01 0.0000000000000000e+00  2.3660817398794975e+02 -6.1459074903681014e+01 0.0000000000000000e+00  2.5346360600772729e+02 -6.6514220465243625e+01 0.0000000000000000e+00  2.4967538162282096e+02 -1.0665819411949654e+02 0.0000000000000000e+00  2.3661191890732729e+02 -1.2583630208801509e+02 0.0000000000000000e+00  2.1787506015926652e+02 -1.3255856994096217e+02 0.0000000000000000e+00  1.9760591023327422e+02 -1.2412745557866621e+02 0.0000000000000000e+00  1.8760367441039611e+02 -1.0617967255966137e+02 0.0000000000000000e+00  2.0485094917422597e+02 -7.6907197179692957e+01 0.0000000000000000e+00  2.2182310696732642e+02 -6.4721119037310558e+01 0.0000000000000000e+00  2.4358318752742386e+02 -6.3311631347572927e+01 0.0000000000000000e+00  2.5616754920751544e+02 -9.2666844316553465e+01 0.0000000000000000e+00  2.5147407542908581e+02 -1.0239388752412789e+02 0.0000000000000000e+00  2.3536151340585266e+02 -1.3180039022999017e+02 0.0000000000000000e+00  3.0270770075750926e+02 -1.0864020057433011e+02 0.0000000000000000e+00  3.0187924502110195e+02 -2.0291883043215783e+01 0.0000000000000000e+00  2.2660963008455471e+02 -1.2818232713983485e+02 0.0000000000000000e+00  2.7173156104101650e+02 -7.7271420897471359e+01 0.0000000000000000e+00  3.1820827508389073e+02 -1.2612238777853600e+01 0.0000000000000000e+00  2.7077030390791674e+02 -4.2069204959451959e+01 0.0000000000000000e+00  3.2598524603972942e+02 -2.3336450983754204e+02 0.0000000000000000e+00  3.0740920660319370e+02 -6.7181318646251897e+00 0.0000000000000000e+00  2.6210294096972120e+02 -9.2741707021082661e+01 0.0000000000000000e+00  3.2695838471237232e+02 -2.9792041387507808e+01 0.0000000000000000e+00  1.5966573437476220e+02 -2.0603031995984276e+02 0.0000000000000000e+00  3.1609157712069123e+02 -4.9470471304290804e+00 0.0000000000000000e+00  3.0413899916244446e+02 -4.8905125681843096e+01 0.0000000000000000e+00  2.7412350686243235e+02 -9.5332553959032794e+01 0.0000000000000000e+00  1.5598077875122110e+01 -2.3848091414352993e+01 0.0000000000000000e+00  3.0853999150670762e+02 -2.3447207076739858e+00 0.0000000000000000e+00  2.4344097742024394e+02 -4.6854227077719784e+01 0.0000000000000000e+00  2.4816276053293055e+02 -9.0516137895309711e+01 0.0000000000000000e+00  2.6338727290096796e+02 -7.4627577429091247e+01 0.0000000000000000e+00  2.7166367229403448e+02 -1.1985323984475288e+02 0.0000000000000000e+00  3.1337582415390949e+02 -2.0481210040728083e+01 0.0000000000000000e+00  3.6672886236762452e+02 -3.1618418483345374e+02 0.0000000000000000e+00  3.1912670134946876e+02 -1.4176627895463241e+02 0.0000000000000000e+00  2.6334788204299525e+02 -1.7288089435183520e+02 0.0000000000000000e+00  3.1312668698428985e+02 -8.9193152543024521e+00 0.0000000000000000e+00  3.1250293808685990e+02 -2.6165919676153865e-01 0.0000000000000000e+00  3.0567066909518451e+02 -1.2240684665699151e+01 0.0000000000000000e+00  3.1247474712823578e+02 -3.6899843046326901e+00 0.0000000000000000e+00  1.9926822732415758e+02 -3.0818781326201429e+02 0.0000000000000000e+00  2.9188175098730403e+02 -2.9809243957929215e+01 0.0000000000000000e+00  2.8692946446062416e+02 -9.0945446842587174e+01 0.0000000000000000e+00  2.4574938825942920e+02 -6.6637189352188201e+01 0.0000000000000000e+00  2.3645560465038568e+02 -7.5981386941646605e+01 0.0000000000000000e+00  2.3495432118293701e+02 -6.5895686234492771e+01 0.0000000000000000e+00  2.8179531767099564e+02 -1.0252572032944425e+02 0.0000000000000000e+00  3.0566212462556467e+02 -2.8913780596987294e+01 0.0000000000000000e+00  3.1356101692738275e+02 -1.3812180480384024e+01 0.0000000000000000e+00  3.1748297010800746e+02 -8.6093586849025758e+00 0.0000000000000000e+00  1.9821708933461116e+02 -1.6072988302968557e+02 0.0000000000000000e+00  3.2222297576042450e+02 -1.7344353705430699e+01 0.0000000000000000e+00  2.4755057250110212e+02 -1.0478724852334257e+02 0.0000000000000000e+00  2.7732276529197730e+02 -9.0422637484335567e+01 0.0000000000000000e+00  3.3825718328032144e+02 -5.0216859127909551e+01 0.0000000000000000e+00  3.1544137929054352e+02 -2.0516943841519248e+00 0.0000000000000000e+00  1.1210551592845840e+02 -2.4329193454151471e+02 0.0000000000000000e+00  2.4621548655914916e+02 -1.1139956213050004e+02 0.0000000000000000e+00  2.2277184550833272e+02 -2.1850770299786055e+02 0.0000000000000000e+00  2.2379027735183601e+02 -9.1630471427177113e+01 0.0000000000000000e+00  2.0676659365407329e+02 -1.1374230285948114e+02 0.0000000000000000e+00  2.9377983501879112e+02 -2.7726966519966669e+02 0.0000000000000000e+00  3.1014017831077206e+02 -5.3617124897405857e+00 0.0000000000000000e+00  2.1711927123097277e+02 -1.2495686865520993e+02 0.0000000000000000e+00  2.2961604249123658e+02 -1.1308996666748848e+02 0.0000000000000000e+00  2.2530719878336905e+02 -4.8756073698769166e+02 0.0000000000000000e+00  3.1095559540430850e+02 -3.2360271486883502e-01 0.0000000000000000e+00  3.0980987529395838e+02 -1.4327428405070797e+00 0.0000000000000000e+00  2.2307085181211733e+02 -8.1593433550464198e+01 0.0000000000000000e+00  3.0984042810672753e+02 -1.1575100640492433e+01 0.0000000000000000e+00  3.0404715757504795e+02 -1.5900644747821037e+01 0.0000000000000000e+00  2.8383131310679823e+02 -1.4206009404363564e+02 0.0000000000000000e+00  2.6632620285820758e+02 -1.0122978885377168e+02 0.0000000000000000e+00  3.1724388244510192e+02 -3.0031465326284192e+01 0.0000000000000000e+00  2.7182875155813059e+02 -9.9410695079168633e+01 0.0000000000000000e+00  2.5490486866321677e+02 -1.4393047207214522e+02 0.0000000000000000e+00  2.6486177289671974e+02 -8.6395224901111106e+01 0.0000000000000000e+00  3.0103137624465114e+02 -7.7046157324255546e+01 0.0000000000000000e+00  2.7871907087304606e+02 -5.5598594547987403e+01 0.0000000000000000e+00  9.4631338936751632e+00 -1.2675205484287307e+01 0.0000000000000000e+00  3.1380682611376704e+02 -1.7009355884716331e+00 0.0000000000000000e+00  2.4077478854702534e+02 -7.9221001135321615e+01 0.0000000000000000e+00  2.7990034476171724e+02 -8.4578449764976668e+01 0.0000000000000000e+00  3.1254890456650048e+02 -6.1412440597679803e+00 0.0000000000000000e+00  3.1075365106030466e+02 -2.4053735854619993e+00 0.0000000000000000e+00  2.0929483539211711e+02 -1.3031600953773707e+02 0.0000000000000000e+00  2.5843060720548073e+02 -7.1399630939096326e+01 0.0000000000000000e+00  3.0955842260197664e+02 -1.5942526332940655e+01 0.0000000000000000e+00  2.8792296108033503e+02 -1.2064047874055078e+02 0.0000000000000000e+00  2.6313443970776916e+02 -1.0599561342087817e+02 0.0000000000000000e+00  3.1011885230351515e+02 -8.0139950288409132e+00 0.0000000000000000e+00  3.0714433812477012e+02 -2.0928155799557366e+01 0.0000000000000000e+00  2.2877816615736839e+02 -8.6171726595680781e+01 0.0000000000000000e+00  2.8301310860134680e+02 -3.6612649087093409e+01 0.0000000000000000e+00  1.0658560822454301e+02 -3.0179348645566864e+02 0.0000000000000000e+00  3.2742034710949645e+02 -1.7416373510652630e+02 0.0000000000000000e+00  2.9353208194393181e+02 -2.1724409559088522e+02 0.0000000000000000e+00  2.4956821780509452e+02 -6.3190646608524581e+01 0.0000000000000000e+00  3.1486267288486761e+02 -7.1221888519254275e+00 0.0000000000000000e+00  3.2352700492398930e+02 -3.9868302431282764e+01 0.0000000000000000e+00  2.4824065422864848e+02 -7.7054761187379682e+01 0.0000000000000000e+00  2.5765500572819383e+02 -4.6249986433061800e+01 0.0000000000000000e+00  3.1717841620290392e+02 -1.6562014671590617e+01 0.0000000000000000e+00  3.1547693153896915e+02 -1.0654544644155077e+01 0.0000000000000000e+00  3.1416904402016951e+02 -4.7206135695229863e+00 0.0000000000000000e+00  1.7776034401316758e+02 -2.5037169601890403e+02 0.0000000000000000e+00  2.1354499297048184e+02 -1.4671962121497378e+02 0.0000000000000000e+00  2.2645536338365386e+02 -1.8027286078984642e+02 0.0000000000000000e+00  2.8002186494281733e+02 -9.3920670480169690e+01 0.0000000000000000e+00  2.7419529202015417e+02 -8.9840801170915242e+01 0.0000000000000000e+00  2.9704033283301209e+02 -3.6088976678785926e+01 0.0000000000000000e+00  3.1967170375834809e+02 -5.8263574733662956e+01 0.0000000000000000e+00  2.7599351759756109e+02 -9.8056012885744735e+01 0.0000000000000000e+00  3.0736408401651511e+02 -9.8356671953870283e+00 0.0000000000000000e+00  2.4600159395864559e+01 -3.7829106967541129e+01 0.0000000000000000e+00  2.3759836355554842e+02 -6.8255105249237249e+02 0.0000000000000000e+00  3.0793002099264976e+02 -4.8650509840884402e+00 0.0000000000000000e+00  3.4577112381921660e+02 -2.8074641131160553e+02 0.0000000000000000e+00  2.9745921929668526e+02 -2.4512879272980229e+01 0.0000000000000000e+00  2.8926802969692181e+02 -9.6743178803415518e+01 0.0000000000000000e+00  2.2875434549750452e+02 -4.9333676989839823e+01 0.0000000000000000e+00  2.3332117850068894e+02 -6.5141810055449056e+01 0.0000000000000000e+00  3.1403312712075575e+02 -3.3705331829710139e-01 0.0000000000000000e+00  3.0378064725700051e+02 -1.2840142493761550e+02 0.0000000000000000e+00  2.9882607479526041e+02 -1.7515028965888740e+02 0.0000000000000000e+00  2.3514332717322895e+02 -7.9164400458572786e+01 0.0000000000000000e+00  2.6355623278943119e+02 -5.6623667328120234e+01 0.0000000000000000e+00  2.3016850818838245e+02 -1.3874803299935024e+02 0.0000000000000000e+00  2.3010419076372753e+02 -7.3102025958012050e+01 0.0000000000000000e+00  2.9137803087154452e+02 -4.4932511164756889e+01 0.0000000000000000e+00  2.5321077839097350e+02 -1.2014309993835022e+02 0.0000000000000000e+00  2.9889744227836570e+02 -3.6053371082886991e+02 0.0000000000000000e+00  2.1232391295799596e+02 -1.0611711268159097e+02 0.0000000000000000e+00  3.1137537109786058e+02 -3.6920703457685271e+01 0.0000000000000000e+00  2.0602450027067491e+02 -9.3855860097059164e+01 0.0000000000000000e+00  2.7325784762516696e+02 -1.0585548520098531e+02 0.0000000000000000e+00  2.7537070103859173e+02 -9.8355346785153088e+01 0.0000000000000000e+00  2.2275895958601021e+02 -1.0216572040730702e+02 0.0000000000000000e+00  3.2596728311620592e+02 -2.3609547245067485e+01 0.0000000000000000e+00  3.1937746891322104e+02 -2.2236125033510810e+01 0.0000000000000000e+00  2.5375250922585147e+02 -1.1650649812447369e+02 0.0000000000000000e+00  3.1217408668275368e+02 -1.6834759728630486e+00 0.0000000000000000e+00  2.3021530324101192e+02 -1.0853755165094628e+02 0.0000000000000000e+00  1.1409202045642640e+02 -3.8799670735057066e+02 0.0000000000000000e+00  2.2434999231252323e+02 -1.2565387165962970e+02 0.0000000000000000e+00  2.7036189284213629e+02 -8.9426273448883975e+01 0.0000000000000000e+00  2.3585012533225648e+02 -7.3406045960897742e+01 0.0000000000000000e+00  1.8153882714900692e+02 -1.8984502220018936e+02 0.0000000000000000e+00  2.6938520530699066e+02 -9.3773269162542590e+01 0.0000000000000000e+00  2.4110195832845150e+02 -8.2507745675882717e+01 0.0000000000000000e+00  2.9058097231862359e+02 -1.0464315291115749e+02 0.0000000000000000e+00  3.1054788143853472e+02 -2.5458843826439928e+01 0.0000000000000000e+00  2.7576127722708532e+02 -9.8263837290799032e+01 0.0000000000000000e+00  2.2472790658579083e+02 -6.2257953500008227e+01 0.0000000000000000e+00  2.3942114233666371e+02 -5.5198154960814826e+01 0.0000000000000000e+00  2.5987747391611327e+02 -2.4209910303739309e+02 0.0000000000000000e+00  2.3982004709325327e+02 -7.0006219012382644e+01 0.0000000000000000e+00  2.3163077526968993e+02 -7.4688101225171238e+01 0.0000000000000000e+00  3.1417470155660169e+02 -3.0975843027608603e+00 0.0000000000000000e+00  3.0193240179211529e+02 -2.3294386179079559e+01 0.0000000000000000e+00  8.0823177232231700e+01 -2.3860653675696361e+02 0.0000000000000000e+00  2.0992398546089487e+02 -1.2515067159019694e+02 0.0000000000000000e+00  2.3574912578063157e+02 -7.0107514058926185e+01 0.0000000000000000e+00  2.6386622191272511e+02 -7.7925266688046577e+01 0.0000000000000000e+00  1.9744337779999415e+02 -1.2596439650203648e+02 0.0000000000000000e+00  3.5088880017418052e+02 -7.1611881440246037e+01 0.0000000000000000e+00  2.3294386209826391e+02 -1.5420938162917096e+02 0.0000000000000000e+00  2.8067202587335083e+02 -1.1063845057512043e+02 0.0000000000000000e+00  3.1531530899757115e+02 -9.2166858929240347e-01 0.0000000000000000e+00  3.0780015110131558e+02 -1.3816653767626331e+01 0.0000000000000000e+00  2.9957264876738839e+02 -1.3719590897746500e+02 0.0000000000000000e+00  2.7887475047477011e+02 -4.4063041828650071e+01 0.0000000000000000e+00  2.7422713620736744e+02 -9.6696967995262810e+01 0.0000000000000000e+00  1.8814506718203171e+02 -2.1431664208397916e+02 0.0000000000000000e+00  2.1645244497626535e+02 -2.6502566057656503e+02 0.0000000000000000e+00  2.4473317630456680e+02 -2.0292483893393626e+02 0.0000000000000000e+00  2.9438911645558551e+02 -5.7366213145927894e+01 0.0000000000000000e+00  2.5501025805240451e+02 -9.0815346227194581e+01 0.0000000000000000e+00  2.8527420286108872e+02 -1.0242510545567799e+02 0.0000000000000000e+00  2.7763601964753713e+02 -1.1053656780224387e+02 0.0000000000000000e+00  3.1584506256381479e+02 -3.8023477540816129e+00 0.0000000000000000e+00  3.1360357113365302e+02 -1.6957333597914360e+01 0.0000000000000000e+00  3.1223594725837449e+02 -1.1524925885042494e+01 0.0000000000000000e+00  3.1652961671690952e+02 -1.3608697967714502e+01 0.0000000000000000e+00  2.1185272552221463e+02 -9.3578505407431351e+01 0.0000000000000000e+00  2.2580801256164898e+02 -1.0391950808153200e+02 0.0000000000000000e+00  2.2758967868068339e+02 -1.4255783491338610e+02 0.0000000000000000e+00  2.2192634293019344e+02 -7.7442314353681581e+01 0.0000000000000000e+00  2.5601319591861369e+02 -8.2543381061493477e+01 0.0000000000000000e+00  2.0807513050002524e+02 -7.9266458035138257e+01 0.0000000000000000e+00  3.1105335663954190e+02 -1.1387045967143736e+00 0.0000000000000000e+00  3.0990781219332473e+02 -3.3492269694937229e+00 0.0000000000000000e+00  1.3621253570608243e+02 -2.3342608941718063e+02 0.0000000000000000e+00  3.2016905661287723e+02 -1.4012591914649315e+01 0.0000000000000000e+00  3.3296210809324998e+02 -3.7393204866771846e+01 0.0000000000000000e+00  3.1655233752796232e+02 -6.4742856387792722e+00 0.0000000000000000e+00  2.5540655638423536e+02 -9.9542626981672839e+01 0.0000000000000000e+00  3.1756898375938835e+02 -1.0492661719746426e+01 0.0000000000000000e+00  2.3502033195700983e+02 -1.1394629680277744e+02 0.0000000000000000e+00  3.0685690430983675e+02 -1.5957584434452981e+01 0.0000000000000000e+00  2.6519573900431288e+02 -1.3695539955660306e+02 0.0000000000000000e+00  1.3983555320132112e+02 -2.6250275288334865e+02 0.0000000000000000e+00  2.8009457292040548e+02 -8.8843117758137197e+01 0.0000000000000000e+00  2.4316204500056250e+02 -1.0199253490602898e+02 0.0000000000000000e+00  2.1519349890641303e+02 -9.7582208319960941e+01 0.0000000000000000e+00  2.1394225229028007e+02 -1.2226926128673674e+02 0.0000000000000000e+00  2.0270297796676834e+02 -1.1894544385742405e+02 0.0000000000000000e+00  2.6390499389296087e+02 -1.3086180088754242e+02 0.0000000000000000e+00  2.7289613948807346e+02 -8.3672778304761636e+01 0.0000000000000000e+00  2.9067244240430438e+02 -3.5857803722183704e+01 0.0000000000000000e+00  3.1079193680930945e+02 -1.0123943703566132e+01 0.0000000000000000e+00  3.2133835621363397e+02 -9.7253783960811575e+01 0.0000000000000000e+00  2.1208626429213973e+02 -1.3764614925350097e+02 0.0000000000000000e+00  2.7887950643452291e+02 -1.2814802893655272e+02 0.0000000000000000e+00  2.6842998106157080e+02 -1.5663458981457822e+02 0.0000000000000000e+00  3.1125874617589005e+02 -1.3674229551005459e+01 0.0000000000000000e+00  2.8537413985366118e+02 -9.6145422009256805e+01 0.0000000000000000e+00  2.9934241513246195e+02 -2.8719729946840459e+01 0.0000000000000000e+00  2.5761756691763981e+02 -9.4981867698838329e+01 0.0000000000000000e+00  2.4345146160029483e+02 -6.7716324283319864e+01 0.0000000000000000e+00  2.5345990964446460e+02 -5.4211547430406313e+01 0.0000000000000000e+00  3.1699290732743896e+02 -1.9757550072822281e+02 0.0000000000000000e+00  3.0868943976933463e+02 -9.7219713221581880e+00 0.0000000000000000e+00  2.3900819228199782e+02 -9.4493922613467021e+01 0.0000000000000000e+00  1.9513483280421804e+02 -1.0491565870738684e+02 0.0000000000000000e+00  2.1745206761123887e+02 -6.9886814124156999e+01 0.0000000000000000e+00  2.0496033281889359e+02 -3.7487396729281613e+02 0.0000000000000000e+00  2.2756634916721958e+02 -1.2258551332835894e+02 0.0000000000000000e+00  2.5114238580589000e+02 -3.0441556617423629e+02 0.0000000000000000e+00  3.1147073615787178e+02 -4.7566582066725482e+00 0.0000000000000000e+00  3.2133881935898944e+02 -2.4599427944357600e+02 0.0000000000000000e+00  3.0920413925823590e+02 -6.6881138056533818e+00 0.0000000000000000e+00  3.6642028002911741e+02 -4.4905990198923183e+02 0.0000000000000000e+00  2.2459860244247972e+02 -6.1687662904327556e+02 0.0000000000000000e+00  2.1843033299878380e+02 -1.2108138972662967e+02 0.0000000000000000e+00  2.4943270919849343e+02 -7.1035418480611725e+01 0.0000000000000000e+00  2.7886441316589975e+02 -7.1191252500272014e+01 0.0000000000000000e+00  3.1458976517671584e+02 -4.7820224915946540e+01 0.0000000000000000e+00  2.7115895127408004e+02 -4.9388702523680699e+01 0.0000000000000000e+00  3.2300698617907221e+02 -2.7266146918525489e+01 0.0000000000000000e+00  3.0434857296068873e+02 -1.5500131408090124e+02 0.0000000000000000e+00  2.68651557572