<?xml version="1.0"?>
<VTKFile type="UnstructuredGrid"  version="0.1"  >
<UnstructuredGrid>
<Piece  NumberOfPoints="1981" NumberOfCells="3668">
<Points>
<DataArray  type="Float64"  NumberOfComponents="3"  format="ascii">-2 0.5 0  -2 0 0  -0.5 0 0  -0.4968561049466213 -0.05598223805165387 0  -0.4874639560909119 -0.1112604669781569 0  -0.4719416651541838 -0.1651395309775835 0  -0.4504844339512096 -0.216941869558779 0  -0.4233620996141421 -0.2660160382576682 0  -0.3909157412340148 -0.3117449009293669 0  -0.3535533905932738 -0.3535533905932737 0  -0.3117449009293669 -0.3909157412340148 0  -0.2660160382576683 -0.4233620996141421 0  -0.2169418695587791 -0.4504844339512095 0  -0.1651395309775836 -0.4719416651541837 0  -0.1112604669781573 -0.4874639560909118 0  -0.05598223805165402 -0.4968561049466213 0  -9.184850993605148e-17 -0.5 0  2 -0.5 0  2 0 0  0.5 0 0  0.4968561049466213 0.05598223805165393 0  0.4874639560909118 0.1112604669781572 0  0.4719416651541838 0.1651395309775835 0  0.4504844339512096 0.2169418695587791 0  0.4233620996141421 0.2660160382576683 0  0.3909157412340149 0.3117449009293667 0  0.3535533905932738 0.3535533905932737 0  0.3117449009293668 0.3909157412340149 0  0.2660160382576683 0.4233620996141421 0  0.2169418695587791 0.4504844339512096 0  0.1651395309775837 0.4719416651541837 0  0.1112604669781572 0.4874639560909118 0  0.05598223805165384 0.4968561049466213 0  3.061616997868383e-17 0.5 0  0.1398708344106534 0.05418624992807294 0  0.15 0 0  0.1398708344106534 -0.05418624992807295 0  0.1108513375830988 -0.1010543465469837 0  0.06686075336648065 -0.1342744937032594 0  0.01384025391949536 -0.1493601264442552 0  -0.04104944851081246 -0.1442738464759228 0  -0.09039519545688858 -0.1197025840920358 0  -0.1275325703594421 -0.07896482443160337 0  -0.1474459649525853 -0.02756242767248552 0  -0.1474459649525853 0.02756242767248555 0  -0.1275325703594421 0.07896482443160341 0  -0.09039519545688844 0.1197025840920359 0  -0.04104944851081243 0.1442738464759228 0  0.0138402539194953 0.1493601264442552 0  0.06686075336648074 0.1342744937032593 0  0.1108513375830989 0.1010543465469836 0  -1 0.5 0  1 -0.5 0  -1.25 0 0  -0.5 0.5 0  1.25 0 0  0.4999999999999999 -0.5 0  -1.5 0.5 0  1.5 -0.5 0  -0.875 0 0  0.875 0 0  -1.625 0 0  1.625 0 0  0.6875 -0.2500000000000001 0  -0.6875 0.25 0  -2 0.25 0  1.75 -0.5 0  0.2499999999999999 -0.5 0  -0.3583969912126916 0.25 0  0.3749999999999999 -0.25 0  -1.0625 0.21875 0  1.0625 -0.21875 0  -1.75 0.5 0  -1.25 0.5 0  -1.375 0.25 0  1.4375 -0.21875 0  2 -0.25 0  1.25 -0.5 0  1.7375 -0.2375 0  -1.7375 0.2375 0  0.75 -0.5 0  -0.75 0.5 0  -0.25 0.5 0  -0.1570377317087672 0.3153742794659282 0  0.1249999999999999 -0.3338777090152827 0  -0.8826650943396226 0.3263561320754717 0  0.8826650943396227 -0.3263561320754717 0  1.25 -0.1897321428571428 0  1.4375 0 0  -1.4375 0 0  1.0625 0 0  -1.0625 0 0  -0.6875 0 0  0.6875 0 0  1.8125 0 0  -1.8125 0 0  0.3263011380546194 -0.06940056902730968 0  -1.554017857142857 0.1790178571428572 0  0.08847100915780901 0.3109433440851622 0  -0.2412983234264066 -0.2156373655531345 0  -1.625 0.3744047619047619 0  1.625 -0.3744047619047619 0  0.2743272717766799 0.1698562554772697 0  -0.3279338175957848 0.06764246763930631 0  -1.863068181818182 0.3630681818181818 0  2 -0.375 0  1.875 -0.5 0  -0.05442366733490933 -0.3203147637646457 0  1.321986607142857 -0.3448660714285714 0  1.125 -0.5 0  -1.209821428571429 0.3236607142857143 0  -0.5229484956063458 0.1781011282952406 0  0.9067445847815293 -0.1625224987586892 0  -0.8335714777578845 0.1642411083184135 0  -1.237063437253354 0.1627182813733228 0  -0.4947697009489606 0.3378596801347012 0  0.53125 -0.171875 0  0.5156249999999999 -0.3359375 0  -2 0.125 0  1.873225308641975 -0.1497685185185185 0  0.2341337966231563 -0.1911191776024666 0  -0.625 0.5 0  1.587453076345555 -0.2288757784711196 0  1.8125 -0.3654761904761905 0  -0.3326862624810256 -0.08869875963335262 0  -0.375 0.5 0  1.174048204529175 -0.319244854540162 0  -1.067618031042359 0.3674567846760797 0  -0.96875 0.109375 0  1.481463366596639 -0.3565498074229692 0  1.023503306098383 -0.3576535124663073 0  -0.2265388519390893 0.1866542405407749 0  0.625 -0.5 0  -1.852445652173913 0.1432065217391304 0  -1.375 0.5 0  -1.479101577239454 0.3541992113802732 0  0.2708871299591885 -0.3541935649795943 0  1.520204106978579 -0.109375 0  0.78125 -0.1026731411563172 0  -0.3125 0.3785994323952442 0  0.3749999999999999 -0.5 0  1.141568346088435 -0.109375 0  1.358431653911565 -0.109375 0  1.668712727161379 -0.1246887081867154 0  -1.673050595238095 0.1226339285714286 0  -1.34375 0 0  -1.431523109243698 0.1313182773109244 0  -0.7546231943577876 0.3660317014105531 0  -0.6233296454587935 0.3645528204344609 0  0.7546231943577878 -0.3660317014105531 0  0.6537002726710706 -0.125 0  -0.6441338591766993 0.125 0  1.375 -0.5 0  -2 0.375 0  -1.875 0.5 0  1.625 -0.5 0  -1.625 0.5 0  0.875 -0.5 0  -0.875 0.5 0  0.1249999999999999 -0.5 0  -0.125 0.5 0  2 -0.125 0  -1.125 0.5 0  -1.354082022940739 0.375 0  -0.03500388138134332 0.2732363193989585 0  0.3955099577726473 -0.3752808566622692 0  0.3596026196703111 0.0631070919012526 0  -0.0625 0.394061918116807 0  0.6342080192637126 -0.3582597885274255 0  -1.123666900137815 0.109375 0  -1.744588744588745 0.3803841991341991 0  0.2210084381421171 0.2925777566973838 0  0.8072251313743133 -0.2315819627814412 0  -0.1814335426834733 -0.3282792760620681 0  -0.9356634513979559 0.2218154628239019 0  0.4183753556420685 -0.1414382112841371 0  -0.1238894550978499 -0.2292394949250368 0  0.96875 0 0  1.013652292192466 -0.1102204462032291 0  -0.4393328341626322 0.09834605222123384 0  1.882206434331873 -0.2686982850037661 0  0.1426699461850768 0.2146575767791519 0  -1.886304127069339 0.251758104550396 0  0.2495743011762567 0.06264742837969955 0  -0.78125 0 0  0.04042933102838756 -0.2590839715717854 0  -1.53125 0 0  -0.5823692714154002 0.2663576540687616 0  -0.2594008044921133 0.2871583817002197 0  -0.9375 0.4157678007976423 0  0.9696186653311423 -0.2675997292662616 0  -0.7942971416386473 0.2646257048857303 0  0.06249999999999992 -0.4169388545076413 0  0.1874999999999999 -0.4169388545076413 0  -1.562839467699977 0.2864000626355251 0  -0.1875 0.4157529178973974 0  -0.1223698320396133 0.2179970721626365 0  1.770639498024741 -0.1399156735731578 0  0.9367002721196375 -0.4157324987180338 0  -1.90625 0 0  -0.2298618769854927 -0.08904896555277285 0  0.1397131066802196 -0.232031643549068 0  -0.4375 0.420861596936145 0  -0.3483554784186823 -0.1925292675214375 0  0.59375 0 0  -1.327632151430252 0.1057660692693074 0  -0.9830051201906395 0.3115204496273563 0  1.90625 0 0  1.236354269160391 -0.3993990952861421 0  -1.1875 0.4214935578661845 0  0.5625 -0.4247705455161483 0  -0.7349377422908023 0.1635199768201956 0  -1.583328550170068 0.08705835459183674 0  -1.640104497493491 0.2259991665335075 0  -1.467109316827997 0.2210671404637805 0  0.5896070530325394 -0.2690578560650788 0  0.3266472067106532 -0.167734762534917 0  -0.59375 0 0  -0.546875 0.08448914438556519 0  1.71875 0 0  1.156078290691277 -0.2031315651260504 0  1.337704613095238 -0.2433035714285714 0  1.236312294597949 -0.09486607142857142 0  0.1642123379155914 0.3701207892454864 0  0.2345507206108115 -0.04384512844718241 0  -0.4048861533022036 -0.02273791864794379 0  0.03798857341016919 0.3979165301900267 0  -0.4006523628802168 0.334179001454817 0  -0.1135990210174155 -0.393340785880617 0  1.906775738056482 -0.3598876272511091 0  1.720393990929705 -0.4044642857142857 0  -1.71875 0 0  1.15625 0 0  0.78125 0 0  1.53125 0 0  -0.96875 0 0  1.34375 0 0  -1.15625 0 0  1.142828909845958 -0.4078056758504979 0  0.40697192225457 -0.01923608979840619 0  -1.767708120728825 0.08966855818957545 0  -0.6882384924227143 0.4308047125515967 0  -0.3636785153797087 0.1553944795036722 0  -0.2291274285977749 0.08616080495998404 0  -0.281012338688557 -0.01202669255906096 0  0.3108677056378212 0.2586754570559801 0  -1.151751953043632 0.196872287087452 0  -0.5625 0.4330368698813529 0  0.6875 -0.4328910527173583 0  1.405021000845949 -0.3057191080886871 0  0.546875 -0.08025568181818182 0  0.3713523302229579 0.1599284134935842 0  -1.12196127795563 0.2911449911382941 0  -1.276991293863022 0.2522534749828799 0  1.255195006158927 -0.2798057638555942 0  -0.8388532729558951 0.4114132763440825 0  0.8388532729558953 -0.4114132763440825 0  -0.4557763550657601 0.2486174768248819 0  0.2049883534781638 -0.2934473685517857 0  0.3226059585583683 -0.4273378498573185 0  -1.426982449282418 0.4270508114904024 0  1.397702183984896 -0.4056170514003312 0  0.05467855045156804 0.2285245978493705 0  -0.272823163096586 -0.3046204408381326 0  -0.02656096412551515 -0.4126877256833236 0  -1.807235369718798 0.2933328120993839 0  0.1906985117418444 0.1399478964461678 0  -1.688085622354259 0.3115694793217502 0  1.659329587961023 -0.2879395206246994 0  -1.5625 0.437202380952381 0  1.546313524296827 -0.4210926184041992 0  -1.813279560389256 0.4363923695021056 0  -1.926524548924358 0.4265245489243581 0  -0.1751061200004134 -0.1578066000831913 0  0.2891187728554643 -0.268298186700636 0  0.4721679687499999 -0.2490234375 0  0.7276683718449491 -0.1720688736051095 0  0.4744973194747868 -0.4152356216385488 0  0.9322020604693165 -0.07914563824612769 0  -1.275602471792197 0.4154857864535745 0  -0.828125 0.07552171441918698 0  1.3125 -0.5 0  -1.931646474339171 0.178059096704675 0  -0.7167268019830385 0.08016211756451477 0  1.060414578698922 -0.4368616551407768 0  -1.6875 0.5 0  1.9375 -0.5 0  1.739833210773432 -0.3220974693894793 0  -2 0.3125 0  -1.207440692409131 0.07848980221212992 0  -0.04055821595704934 -0.2377097412335854 0  0.1922531441870086 -0.1190381071624572 0  1.509237778147088 -0.2717758217431455 0  0.8901922386429052 -0.2437760747352658 0  -1.498530569603453 0.07867879855510211 0  0.9849923856958628 -0.1870513965806273 0  1.515605916195201 -0.1906351698786736 0  1.439317880445072 -0.08458133750179306 0  1.932491348856277 -0.2050969650933771 0  1.828075655121533 -0.08087981225769847 0  1
[...]
<PointData  Vectors="f_39"> 
<DataArray  type="Float64"  Name="f_39"  NumberOfComponents="3" format="ascii">2.4088836809136563e+01 -9.8709829230552526e-01 0.0000000000000000e+00  5.5744692860656718e-02 -2.9521707934113650e-01 0.0000000000000000e+00  3.8418289939603277e+01 -1.4476230530272256e+01 0.0000000000000000e+00  3.8366693198101238e+01 -1.4216788601685385e+01 0.0000000000000000e+00  3.8374193164405142e+01 -1.4053918862804391e+01 0.0000000000000000e+00  3.8318437840153550e+01 -1.3977898868408442e+01 0.0000000000000000e+00  3.8250311276059257e+01 -1.3795758826517575e+01 0.0000000000000000e+00  3.8139116290924740e+01 -1.3728251594144091e+01 0.0000000000000000e+00  3.8037373871172449e+01 -1.3577014733711783e+01 0.0000000000000000e+00  3.7960783829511321e+01 -1.3434169236121623e+01 0.0000000000000000e+00  3.7956572157975302e+01 -1.3022141118762368e+01 0.0000000000000000e+00  3.7947972484004474e+01 -1.2854728404107641e+01 0.0000000000000000e+00  3.8030711889844127e+01 -1.2642744066554068e+01 0.0000000000000000e+00  3.8121301529328193e+01 -1.2439101868606363e+01 0.0000000000000000e+00  3.8197258437579016e+01 -1.2283682693106037e+01 0.0000000000000000e+00  3.8454056470379676e+01 -1.1966932755024004e+01 0.0000000000000000e+00  3.8657749592922293e+01 -1.1958115081411131e+01 0.0000000000000000e+00  4.1529687953580918e+01 -5.0352604731608429e-02 0.0000000000000000e+00  4.3499520385943647e+01 -1.2126063078491148e-01 0.0000000000000000e+00  4.2307260731324924e+01 -1.4238047952165825e+01 0.0000000000000000e+00  4.1426647220735454e+01 -1.5019121816184295e+01 0.0000000000000000e+00  4.0734831945512468e+01 -1.4953453564571307e+01 0.0000000000000000e+00  4.0374460688983710e+01 -1.4909105917816179e+01 0.0000000000000000e+00  3.9915759637579583e+01 -1.4805225377337884e+01 0.0000000000000000e+00  3.9569313819156754e+01 -1.4646159893939343e+01 0.0000000000000000e+00  3.9322474433895351e+01 -1.4424239091825321e+01 0.0000000000000000e+00  3.9246056630065063e+01 -1.4284691327717104e+01 0.0000000000000000e+00  3.9136244356873071e+01 -1.4061535512646310e+01 0.0000000000000000e+00  3.9025168725977281e+01 -1.3937803059320148e+01 0.0000000000000000e+00  3.9092714898058887e+01 -1.3578142681938258e+01 0.0000000000000000e+00  3.9094513440842796e+01 -1.3399353589174941e+01 0.0000000000000000e+00  3.9265270640599773e+01 -1.3212172971727139e+01 0.0000000000000000e+00  3.9356715495567272e+01 -1.3137441775277290e+01 0.0000000000000000e+00  3.9702699214657812e+01 -1.3056225961568048e+01 0.0000000000000000e+00  3.9945632038944034e+01 -1.3372937526843049e+01 0.0000000000000000e+00  4.0150708073766111e+01 -1.3172509525273238e+01 0.0000000000000000e+00  4.0140717267120579e+01 -1.3015187618281058e+01 0.0000000000000000e+00  4.0006016652617603e+01 -1.2989660084182608e+01 0.0000000000000000e+00  3.9692632118944900e+01 -1.3068176262661575e+01 0.0000000000000000e+00  3.9421073144031247e+01 -1.2964880244744181e+01 0.0000000000000000e+00  3.8986282832386649e+01 -1.3136367155925459e+01 0.0000000000000000e+00  3.8906955879797898e+01 -1.3190795953231992e+01 0.0000000000000000e+00  3.8942190331282433e+01 -1.3231368424417518e+01 0.0000000000000000e+00  3.9226286102984758e+01 -1.3372183377146950e+01 0.0000000000000000e+00  3.9502357115583337e+01 -1.3545802133131749e+01 0.0000000000000000e+00  3.9606993669977562e+01 -1.3862000286565957e+01 0.0000000000000000e+00  3.9554878965365894e+01 -1.3822624529835853e+01 0.0000000000000000e+00  3.9530930199193541e+01 -1.3650528541246603e+01 0.0000000000000000e+00  3.9725184725417812e+01 -1.3594047354179407e+01 0.0000000000000000e+00  3.9658393744520900e+01 -1.3588304599721281e+01 0.0000000000000000e+00  3.9848361972663326e+01 -1.3504929737994004e+01 0.0000000000000000e+00  4.9272245085942117e+01 -2.4513350653495475e+01 0.0000000000000000e+00  4.0736409425472047e+01 -6.4480821851401720e+00 0.0000000000000000e+00  2.6359202623231241e+01 -3.4591291169453562e+01 0.0000000000000000e+00  4.2250695188818455e+01 -1.4642884882601750e+01 0.0000000000000000e+00  4.3977445822630330e+01 -4.2544689445411770e+00 0.0000000000000000e+00  3.9942393165350609e+01 -1.0070640836413228e+01 0.0000000000000000e+00  5.3066821561322662e+01 -5.9652396219314106e+01 0.0000000000000000e+00  4.0941012048042580e+01 -2.5505098682822167e+00 0.0000000000000000e+00  3.4762661304251452e+01 -2.0491378631721901e+01 0.0000000000000000e+00  4.4788563370261123e+01 -7.7996945476803772e+00 0.0000000000000000e+00  1.8086928576435248e+01 -6.0293810169229253e+01 0.0000000000000000e+00  4.3690776418030666e+01 -1.8259381093820823e+00 0.0000000000000000e+00  4.2203655935310223e+01 -9.4170765048542542e+00 0.0000000000000000e+00  4.0380369890376102e+01 -1.8303740400471639e+01 0.0000000000000000e+00  1.3509469844138662e+01 -4.7434834059776948e-01 0.0000000000000000e+00  4.1267662629912024e+01 -9.5417943176041375e-01 0.0000000000000000e+00  3.9406344125500752e+01 -1.1302206129462512e+01 0.0000000000000000e+00  4.0068847192410409e+01 -1.4560494363441677e+01 0.0000000000000000e+00  4.0737408430378764e+01 -1.1660278811949171e+01 0.0000000000000000e+00  3.9385842958492880e+01 -2.8857784292118158e+01 0.0000000000000000e+00  4.2761739632312000e+01 -5.9039839435128130e+00 0.0000000000000000e+00  4.9385684925442824e+01 -7.9126914725853752e+01 0.0000000000000000e+00  5.2888960363883264e+01 -3.6997736763651410e+01 0.0000000000000000e+00  3.8337046707196770e+01 -4.5947346267795844e+01 0.0000000000000000e+00  4.2701385521183347e+01 -3.0557519281572332e+00 0.0000000000000000e+00  4.2463360898421570e+01 -1.2871652403737319e-01 0.0000000000000000e+00  4.0794828549221172e+01 -4.3586776214709317e+00 0.0000000000000000e+00  4.2497099443800664e+01 -1.3331542528477245e+00 0.0000000000000000e+00  2.9842330230046027e+01 -7.3277662991817820e+01 0.0000000000000000e+00  4.0498373297929518e+01 -8.4466383367379265e+00 0.0000000000000000e+00  4.4936844834661365e+01 -1.7937208405510358e+01 0.0000000000000000e+00  4.0613717241483059e+01 -1.3346345832107708e+01 0.0000000000000000e+00  4.0002442436960855e+01 -1.3699717081995638e+01 0.0000000000000000e+00  3.9409762437142618e+01 -1.2146565080605789e+01 0.0000000000000000e+00  4.3131297236945883e+01 -2.2414641032235803e+01 0.0000000000000000e+00  4.1822857539488474e+01 -7.4325530691003800e+00 0.0000000000000000e+00  4.2803789016180062e+01 -4.4130761914408758e+00 0.0000000000000000e+00  4.3962177724326999e+01 -3.0023680125689518e+00 0.0000000000000000e+00  2.1960362900209248e+01 -4.6410618126670478e+01 0.0000000000000000e+00  4.4506008685970997e+01 -5.4512724618408237e+00 0.0000000000000000e+00  3.1305434198246516e+01 -2.5353615295251178e+01 0.0000000000000000e+00  3.6435882112714651e+01 -1.7518755703931429e+01 0.0000000000000000e+00  4.4463162598025633e+01 -9.9409176976991240e+00 0.0000000000000000e+00  4.3602453438452351e+01 -7.2714399270567276e-01 0.0000000000000000e+00  1.6385417133609664e+01 -6.9558593446971045e+01 0.0000000000000000e+00  4.0888316279759728e+01 -1.3038221199050797e+01 0.0000000000000000e+00  3.0291744900725469e+01 -5.7268042251440903e+01 0.0000000000000000e+00  3.9531255896679909e+01 -1.3560597145103911e+01 0.0000000000000000e+00  3.8496296829896835e+01 -1.3315991547256369e+01 0.0000000000000000e+00  4.3823754722442231e+01 -6.7790442862506083e+01 0.0000000000000000e+00  4.1732664726671779e+01 -1.9423914756233283e+00 0.0000000000000000e+00  3.9916751900159056e+01 -1.3951918648483433e+01 0.0000000000000000e+00  3.9194854232515844e+01 -1.4225052494955431e+01 0.0000000000000000e+00  3.5240452996091300e+01 -9.3347736088852699e+01 0.0000000000000000e+00  4.1875876626895824e+01 -1.3031878898992907e-01 0.0000000000000000e+00  4.1463482674341712e+01 -5.0337346953349882e-01 0.0000000000000000e+00  3.8779673306982048e+01 -1.2614055287189771e+01 0.0000000000000000e+00  4.1793736399579899e+01 -3.8655867260100631e+00 0.0000000000000000e+00  4.0742794909050389e+01 -5.3592130682104697e+00 0.0000000000000000e+00  4.3721209105673836e+01 -3.6211487467916172e+01 0.0000000000000000e+00  3.9407323870079871e+01 -1.5860115346015233e+01 0.0000000000000000e+00  4.3415755954081042e+01 -7.3891845455387752e+00 0.0000000000000000e+00  3.8395151834183977e+01 -2.1141026911803369e+01 0.0000000000000000e+00  3.4892113640641448e+01 -3.7112045078376724e+01 0.0000000000000000e+00  4.1115317194003609e+01 -1.5447144098823248e+01 0.0000000000000000e+00  4.2325370334111554e+01 -1.1084775877519018e+01 0.0000000000000000e+00  4.0817625271619384e+01 -1.0491408931295453e+01 0.0000000000000000e+00  7.1393088984520316e+00 -3.6873335578348765e-01 0.0000000000000000e+00  4.2997410864181631e+01 -6.0882105741544390e-01 0.0000000000000000e+00  4.0201264512745688e+01 -1.2431942478545459e+01 0.0000000000000000e+00  4.3333432248324684e+01 -1.5956873901410423e+01 0.0000000000000000e+00  4.2563492864658699e+01 -2.1275886655364333e+00 0.0000000000000000e+00  4.1859266949709408e+01 -8.4447983868029119e-01 0.0000000000000000e+00  3.8689796639446705e+01 -1.3797421532040103e+01 0.0000000000000000e+00  4.1417968754963802e+01 -1.3772487417860303e+01 0.0000000000000000e+00  4.1896960328340704e+01 -5.0313539486048713e+00 0.0000000000000000e+00  4.5110501902656253e+01 -2.8845174291499966e+01 0.0000000000000000e+00  3.5742650046347009e+01 -2.4421860029888538e+01 0.0000000000000000e+00  4.1727599584577206e+01 -2.8119568216989652e+00 0.0000000000000000e+00  4.1644533483294445e+01 -6.1743224072148193e+00 0.0000000000000000e+00  3.9705859192832513e+01 -1.4010885949076402e+01 0.0000000000000000e+00  4.0245336915764028e+01 -9.3379463305235291e+00 0.0000000000000000e+00  1.8314849699979163e+01 -7.5109033847092917e+01 0.0000000000000000e+00  5.4733499212746622e+01 -4.6568286548039154e+01 0.0000000000000000e+00  4.5537970678836210e+01 -5.5781521193968302e+01 0.0000000000000000e+00  3.9921839424139336e+01 -1.1685460338243489e+01 0.0000000000000000e+00  4.3236833295861985e+01 -2.4991405768641823e+00 0.0000000000000000e+00  4.3851072831093994e+01 -8.6841588899513447e+00 0.0000000000000000e+00  4.0552010494292809e+01 -1.3981229421643098e+01 0.0000000000000000e+00  3.9625834417545107e+01 -1.0860399434109057e+01 0.0000000000000000e+00  4.3590402930738776e+01 -5.1020947720640883e+00 0.0000000000000000e+00  4.3395925520065127e+01 -3.6229878401170890e+00 0.0000000000000000e+00  4.3106211926125482e+01 -1.6932823711629912e+00 0.0000000000000000e+00  2.4451779017892324e+01 -6.5717413115147295e+01 0.0000000000000000e+00  2.4088985844549637e+01 -4.1466523058213731e+01 0.0000000000000000e+00  2.8908734755634693e+01 -4.8684246875746979e+01 0.0000000000000000e+00  4.2882763497895965e+01 -1.8890162352879077e+01 0.0000000000000000e+00  4.2017689620503447e+01 -1.6713923530160748e+01 0.0000000000000000e+00  4.1270296466652070e+01 -8.5544542171013855e+00 0.0000000000000000e+00  4.3237000778002617e+01 -1.0005279845342097e+01 0.0000000000000000e+00  3.8319019108909401e+01 -1.7307651928402304e+01 0.0000000000000000e+00  4.0918616579963953e+01 -3.5717396656988973e+00 0.0000000000000000e+00  1.9178286478370719e+01 -6.1610016390761513e-01 0.0000000000000000e+00  4.7437469087890165e+01 -1.0076653931899428e+02 0.0000000000000000e+00  4.1020973409731319e+01 -1.8308952264619547e+00 0.0000000000000000e+00  5.2609210918098931e+01 -7.0003180306701495e+01 0.0000000000000000e+00  4.0580170306439733e+01 -7.2772540637687122e+00 0.0000000000000000e+00  4.6765423900758663e+01 -2.0254861978358601e+01 0.0000000000000000e+00  3.9050602801327550e+01 -1.1610455032942104e+01 0.0000000000000000e+00  4.0117646879787081e+01 -1.3210465369897362e+01 0.0000000000000000e+00  4.3043793948330027e+01 -1.4272566787815918e-01 0.0000000000000000e+00  5.0998414841055883e+01 -3.1514059570171852e+01 0.0000000000000000e+00  4.7485669664561620e+01 -4.5939843376082109e+01 0.0000000000000000e+00  3.9693757827809684e+01 -1.3568547031719072e+01 0.0000000000000000e+00  4.0238437592393559e+01 -1.1007902019950484e+01 0.0000000000000000e+00  4.0718915449258105e+01 -1.4018888310279040e+01 0.0000000000000000e+00  3.9836695117451249e+01 -1.3374351785196030e+01 0.0000000000000000e+00  4.1201524476755431e+01 -9.4625499231606263e+00 0.0000000000000000e+00  3.3159089991809438e+01 -2.9817909662272193e+01 0.0000000000000000e+00  4.2620038344864497e+01 -7.9643597980544570e+01 0.0000000000000000e+00  3.9470210017969791e+01 -1.3850172844111256e+01 0.0000000000000000e+00  4.2675259309809661e+01 -8.2368401379127505e+00 0.0000000000000000e+00  3.8360646468018324e+01 -1.2885698270936530e+01 0.0000000000000000e+00  3.9298023748348420e+01 -2.3816205238755899e+01 0.0000000000000000e+00  4.1569249096289710e+01 -1.2267536938998733e+01 0.0000000000000000e+00  3.8711371697281699e+01 -1.3004726257529908e+01 0.0000000000000000e+00  4.4847745131054786e+01 -6.7632170848463042e+00 0.0000000000000000e+00  4.3874727467935337e+01 -6.2210885903296544e+00 0.0000000000000000e+00  3.9045792056064734e+01 -1.4850529797432531e+01 0.0000000000000000e+00  4.2383575404000581e+01 -5.9395367566383683e-01 0.0000000000000000e+00  3.9659893622735495e+01 -1.3659064940495343e+01 0.0000000000000000e+00  2.2166289348782875e+01 -8.4531568862189090e+01 0.0000000000000000e+00  4.0247366857203410e+01 -1.3528605393070736e+01 0.0000000000000000e+00  3.5887509708960152e+01 -1.8719435423060339e+01 0.0000000000000000e+00  3.9226705746091270e+01 -1.2644005540755355e+01 0.0000000000000000e+00  2.0020337546094868e+01 -5.3591522578555960e+01 0.0000000000000000e+00  4.0532238412239437e+01 -1.6405957926254668e+01 0.0000000000000000e+00  4.0091577483171569e+01 -1.4031153403372141e+01 0.0000000000000000e+00  4.6351094254850175e+01 -2.3087533521078438e+01 0.0000000000000000e+00  4.2414132824225071e+01 -6.7472922727800215e+00 0.0000000000000000e+00  4.0673461067881533e+01 -2.0220752455697255e+01 0.0000000000000000e+00  3.8956308610007746e+01 -1.2053667018732494e+01 0.0000000000000000e+00  3.9399057101969269e+01 -1.1673866118786215e+01 0.0000000000000000e+00  3.8492331461165740e+01 -6.0772676125409063e+01 0.0000000000000000e+00  4.0247282224247250e+01 -1.3488692281405179e+01 0.0000000000000000e+00  3.9690213605348575e+01 -1.3781682744232498e+01 0.0000000000000000e+00  4.3077498388582747e+01 -1.1471893374039352e+00 0.0000000000000000e+00  4.1032426392759390e+01 -6.9063868577322998e+00 0.0000000000000000e+00  1.4411213192085636e+01 -6.9870471645611161e+01 0.0000000000000000e+00  3.8911651003249773e+01 -1.3501524895878884e+01 0.0000000000000000e+00  3.9652023048507111e+01 -1.2548682362814015e+01 0.0000000000000000e+00  4.1568351853820701e+01 -1.4518311947569488e+01 0.0000000000000000e+00  3.8409568073900310e+01 -1.3663700573524158e+01 0.0000000000000000e+00  4.4452544811762266e+01 -1.0993091014947209e+01 0.0000000000000000e+00  2.9300998538693527e+01 -4.1402862559142648e+01 0.0000000000000000e+00  4.2675673384633519e+01 -2.5425664308299471e+01 0.0000000000000000e+00  4.3494614948265742e+01 -3.5911545931104438e-01 0.0000000000000000e+00  4.1371231648768038e+01 -4.6180267188506550e+00 0.0000000000000000e+00  4.9052344820942686e+01 -3.4487461556086785e+01 0.0000000000000000e+00  4.0411367828006284e+01 -9.8864071409836924e+00 0.0000000000000000e+00  3.8780983331016557e+01 -1.8842955204516038e+01 0.0000000000000000e+00  2.3526959117825598e+01 -5.8509818968087423e+01 0.0000000000000000e+00  3.1244251305437821e+01 -6.5552577663413686e+01 0.0000000000000000e+00  3.4269052582987001e+01 -5.2698371809456674e+01 0.0000000000000000e+00  4.1716150410996697e+01 -1.0173986305002556e+01 0.0000000000000000e+00  4.0834821901634619e+01 -1.2363986399663519e+01 0.0000000000000000e+00  3.7558075802942696e+01 -1.5839972555007849e+01 0.0000000000000000e+00  3.8224563452435817e+01 -1.5679739457070198e+01 0.0000000000000000e+00  4.3650328091470470e+01 -1.3737133174021707e+00 0.0000000000000000e+00  4.2857445418926176e+01 -5.1589536765459947e+00 0.0000000000000000e+00  4.2438896941506762e+01 -3.7998651160729766e+00 0.0000000000000000e+00  4.3524674552016499e+01 -4.4071485311096623e+00 0.0000000000000000e+00  3.9328655469074107e+01 -1.3626948110118812e+01 0.0000000000000000e+00  4.0398027944354936e+01 -1.3032176883071116e+01 0.0000000000000000e+00  3.8671041396604323e+01 -1.4187121142463530e+01 0.0000000000000000e+00  3.9589318484795356e+01 -1.3340272070133322e+01 0.0000000000000000e+00  4.0707475069110288e+01 -1.4610149878795665e+01 0.0000000000000000e+00  3.8408130844806578e+01 -1.2502819395009098e+01 0.0000000000000000e+00  4.1979406203191139e+01 -3.9124126343239546e-01 0.0000000000000000e+00  4.1607853510264071e+01 -1.2050264818319751e+00 0.0000000000000000e+00  1.7352574081072305e+01 -6.6644511570691847e+01 0.0000000000000000e+00  4.4193318494686565e+01 -4.7298343652897508e+00 0.0000000000000000e+00  4.4826420878889174e+01 -8.8264634361932988e+00 0.0000000000000000e+00  4.3770878244769285e+01 -2.3405834330515862e+00 0.0000000000000000e+00  3.3141694441099382e+01 -2.2914573519332173e+01 0.0000000000000000e+00  4.3948902072386659e+01 -3.6809059363951731e+00 0.0000000000000000e+00  2.8201684043248775e+01 -2.9247746434380296e+01 0.0000000000000000e+00  4.1301852413113892e+01 -5.1569806862208365e+00 0.0000000000000000e+00  4.1734068541872951e+01 -1.3555107159479157e+01 0.0000000000000000e+00  2.0094352232924006e+01 -6.9575088390468707e+01 0.0000000000000000e+00  4.3548048681232551e+01 -1.7210302929778528e+01 0.0000000000000000e+00  3.9540438937147393e+01 -1.4524988115577836e+01 0.0000000000000000e+00  3.9509368298722528e+01 -1.3921870200435997e+01 0.0000000000000000e+00  3.9028773728431595e+01 -1.3793461256306584e+01 0.0000000000000000e+00  3.9557575751257147e+01 -1.4244756841882500e+01 0.0000000000000000e+00  3.7275490998302999e+01 -3.3109245764627325e+01 0.0000000000000000e+00  4.2293037172762482e+01 -1.5621512566501034e+01 0.0000000000000000e+00  4.0744587052095213e+01 -8.8639817777138461e+00 0.0000000000000000e+00  4.1993386309702657e+01 -3.4440083135959401e+00 0.0000000000000000e+00  4.3259012238732403e+01 -1.1825872159872391e+01 0.0000000000000000e+00  4.0238149353406165e+01 -1.4360274340635772e+01 0.0000000000000000e+00  4.1845199036646349e+01 -3.1721429059119437e+01 0.0000000000000000e+00  3.9152605506498276e+01 -4.0451561414588895e+01 0.0000000000000000e+00  4.2232655097780345e+01 -4.4084775687722004e+00 0.0000000000000000e+00  4.4513354025228949e+01 -1.9993016416432365e+01 0.0000000000000000e+00  4.1048805675208676e+01 -7.6870624396603429e+00 0.0000000000000000e+00  4.0112827620677173e+01 -1.5155182927780730e+01 0.0000000000000000e+00  3.9894691410952753e+01 -1.2035710330470295e+01 0.0000000000000000e+00  3.9764880682022444e+01 -1.1282172109730020e+01 0.0000000000000000e+00  5.1513825800728164e+01 -5.1723588391675307e+01 0.0000000000000000e+00  4.1341341776991655e+01 -3.3837531034201622e+00 0.0000000000000000e+00  3.9610050434271287e+01 -1.3584256003888331e+01 0.0000000000000000e+00  3.8171597946319885e+01 -1.3218486104895060e+01 0.0000000000000000e+00  3.8711095982046551e+01 -1.2258863754739901e+01 0.0000000000000000e+00  3.1282082537009384e+01 -8.1028442384073813e+01 0.0000000000000000e+00  3.9827157990044938e+01 -1.3620656910075700e+01 0.0000000000000000e+00  3.6827840427775435e+01 -7.1330434895373259e+01 0.0000000000000000e+00  4.2160080072504400e+01 -1.6954627781674003e+00 0.0000000000000000e+00  5.0147366328951072e+01 -6.2775640998618705e+01 0.0000000000000000e+00  4.1372838729851324e+01 -2.4127986649900346e+00 0.0000000000000000e+00  4.7796228907189580e+01 -8.9081185567279803e+01 0.0000000000000000e+00  3.5945593716200747e+01 -1.0393113698598960e+02 0.0000000000000000e+00  3.8782316943652887e+01 -1.3264316559335832e+01 0.0000000000000000e+00  4.0146133642262235e+01 -1.1903539468075312e+01 0.0000000000000000e+00  4.1221549118620324e+01 -1.1152108131088742e+01 0.0000000000000000e+00  4.3011398758800773e+01 -9.2631340465083927e+00 0.0000000000000000e+00  4.0287611796130335e+01 -1.0424200569470251e+01 0.0000000000000000e+00  4.4320045999667258e+01 -7.1852030156820206e+00 0.0000000000000000e+00  5.0089455736880105e+01 -4.0060334896862550e+01 0.0000000000000000e+00  3.6338142288