<?xml version="1.0"?>
<VTKFile type="UnstructuredGrid"  version="0.1"  >
<UnstructuredGrid>
<Piece  NumberOfPoints="1981" NumberOfCells="3668">
<Points>
<DataArray  type="Float64"  NumberOfComponents="3"  format="ascii">-2 0.5 0  -2 0 0  -0.5 0 0  -0.4968561049466213 -0.05598223805165387 0  -0.4874639560909119 -0.1112604669781569 0  -0.4719416651541838 -0.1651395309775835 0  -0.4504844339512096 -0.216941869558779 0  -0.4233620996141421 -0.2660160382576682 0  -0.3909157412340148 -0.3117449009293669 0  -0.3535533905932738 -0.3535533905932737 0  -0.3117449009293669 -0.3909157412340148 0  -0.2660160382576683 -0.4233620996141421 0  -0.2169418695587791 -0.4504844339512095 0  -0.1651395309775836 -0.4719416651541837 0  -0.1112604669781573 -0.4874639560909118 0  -0.05598223805165402 -0.4968561049466213 0  -9.184850993605148e-17 -0.5 0  2 -0.5 0  2 0 0  0.5 0 0  0.4968561049466213 0.05598223805165393 0  0.4874639560909118 0.1112604669781572 0  0.4719416651541838 0.1651395309775835 0  0.4504844339512096 0.2169418695587791 0  0.4233620996141421 0.2660160382576683 0  0.3909157412340149 0.3117449009293667 0  0.3535533905932738 0.3535533905932737 0  0.3117449009293668 0.3909157412340149 0  0.2660160382576683 0.4233620996141421 0  0.2169418695587791 0.4504844339512096 0  0.1651395309775837 0.4719416651541837 0  0.1112604669781572 0.4874639560909118 0  0.05598223805165384 0.4968561049466213 0  3.061616997868383e-17 0.5 0  0.1398708344106534 0.05418624992807294 0  0.15 0 0  0.1398708344106534 -0.05418624992807295 0  0.1108513375830988 -0.1010543465469837 0  0.06686075336648065 -0.1342744937032594 0  0.01384025391949536 -0.1493601264442552 0  -0.04104944851081246 -0.1442738464759228 0  -0.09039519545688858 -0.1197025840920358 0  -0.1275325703594421 -0.07896482443160337 0  -0.1474459649525853 -0.02756242767248552 0  -0.1474459649525853 0.02756242767248555 0  -0.1275325703594421 0.07896482443160341 0  -0.09039519545688844 0.1197025840920359 0  -0.04104944851081243 0.1442738464759228 0  0.0138402539194953 0.1493601264442552 0  0.06686075336648074 0.1342744937032593 0  0.1108513375830989 0.1010543465469836 0  -1 0.5 0  1 -0.5 0  -1.25 0 0  -0.5 0.5 0  1.25 0 0  0.4999999999999999 -0.5 0  -1.5 0.5 0  1.5 -0.5 0  -0.875 0 0  0.875 0 0  -1.625 0 0  1.625 0 0  0.6875 -0.2500000000000001 0  -0.6875 0.25 0  -2 0.25 0  1.75 -0.5 0  0.2499999999999999 -0.5 0  -0.3583969912126916 0.25 0  0.3749999999999999 -0.25 0  -1.0625 0.21875 0  1.0625 -0.21875 0  -1.75 0.5 0  -1.25 0.5 0  -1.375 0.25 0  1.4375 -0.21875 0  2 -0.25 0  1.25 -0.5 0  1.7375 -0.2375 0  -1.7375 0.2375 0  0.75 -0.5 0  -0.75 0.5 0  -0.25 0.5 0  -0.1570377317087672 0.3153742794659282 0  0.1249999999999999 -0.3338777090152827 0  -0.8826650943396226 0.3263561320754717 0  0.8826650943396227 -0.3263561320754717 0  1.25 -0.1897321428571428 0  1.4375 0 0  -1.4375 0 0  1.0625 0 0  -1.0625 0 0  -0.6875 0 0  0.6875 0 0  1.8125 0 0  -1.8125 0 0  0.3263011380546194 -0.06940056902730968 0  -1.554017857142857 0.1790178571428572 0  0.08847100915780901 0.3109433440851622 0  -0.2412983234264066 -0.2156373655531345 0  -1.625 0.3744047619047619 0  1.625 -0.3744047619047619 0  0.2743272717766799 0.1698562554772697 0  -0.3279338175957848 0.06764246763930631 0  -1.863068181818182 0.3630681818181818 0  2 -0.375 0  1.875 -0.5 0  -0.05442366733490933 -0.3203147637646457 0  1.321986607142857 -0.3448660714285714 0  1.125 -0.5 0  -1.209821428571429 0.3236607142857143 0  -0.5229484956063458 0.1781011282952406 0  0.9067445847815293 -0.1625224987586892 0  -0.8335714777578845 0.1642411083184135 0  -1.237063437253354 0.1627182813733228 0  -0.4947697009489606 0.3378596801347012 0  0.53125 -0.171875 0  0.5156249999999999 -0.3359375 0  -2 0.125 0  1.873225308641975 -0.1497685185185185 0  0.2341337966231563 -0.1911191776024666 0  -0.625 0.5 0  1.587453076345555 -0.2288757784711196 0  1.8125 -0.3654761904761905 0  -0.3326862624810256 -0.08869875963335262 0  -0.375 0.5 0  1.174048204529175 -0.319244854540162 0  -1.067618031042359 0.3674567846760797 0  -0.96875 0.109375 0  1.481463366596639 -0.3565498074229692 0  1.023503306098383 -0.3576535124663073 0  -0.2265388519390893 0.1866542405407749 0  0.625 -0.5 0  -1.852445652173913 0.1432065217391304 0  -1.375 0.5 0  -1.479101577239454 0.3541992113802732 0  0.2708871299591885 -0.3541935649795943 0  1.520204106978579 -0.109375 0  0.78125 -0.1026731411563172 0  -0.3125 0.3785994323952442 0  0.3749999999999999 -0.5 0  1.141568346088435 -0.109375 0  1.358431653911565 -0.109375 0  1.668712727161379 -0.1246887081867154 0  -1.673050595238095 0.1226339285714286 0  -1.34375 0 0  -1.431523109243698 0.1313182773109244 0  -0.7546231943577876 0.3660317014105531 0  -0.6233296454587935 0.3645528204344609 0  0.7546231943577878 -0.3660317014105531 0  0.6537002726710706 -0.125 0  -0.6441338591766993 0.125 0  1.375 -0.5 0  -2 0.375 0  -1.875 0.5 0  1.625 -0.5 0  -1.625 0.5 0  0.875 -0.5 0  -0.875 0.5 0  0.1249999999999999 -0.5 0  -0.125 0.5 0  2 -0.125 0  -1.125 0.5 0  -1.354082022940739 0.375 0  -0.03500388138134332 0.2732363193989585 0  0.3955099577726473 -0.3752808566622692 0  0.3596026196703111 0.0631070919012526 0  -0.0625 0.394061918116807 0  0.6342080192637126 -0.3582597885274255 0  -1.123666900137815 0.109375 0  -1.744588744588745 0.3803841991341991 0  0.2210084381421171 0.2925777566973838 0  0.8072251313743133 -0.2315819627814412 0  -0.1814335426834733 -0.3282792760620681 0  -0.9356634513979559 0.2218154628239019 0  0.4183753556420685 -0.1414382112841371 0  -0.1238894550978499 -0.2292394949250368 0  0.96875 0 0  1.013652292192466 -0.1102204462032291 0  -0.4393328341626322 0.09834605222123384 0  1.882206434331873 -0.2686982850037661 0  0.1426699461850768 0.2146575767791519 0  -1.886304127069339 0.251758104550396 0  0.2495743011762567 0.06264742837969955 0  -0.78125 0 0  0.04042933102838756 -0.2590839715717854 0  -1.53125 0 0  -0.5823692714154002 0.2663576540687616 0  -0.2594008044921133 0.2871583817002197 0  -0.9375 0.4157678007976423 0  0.9696186653311423 -0.2675997292662616 0  -0.7942971416386473 0.2646257048857303 0  0.06249999999999992 -0.4169388545076413 0  0.1874999999999999 -0.4169388545076413 0  -1.562839467699977 0.2864000626355251 0  -0.1875 0.4157529178973974 0  -0.1223698320396133 0.2179970721626365 0  1.770639498024741 -0.1399156735731578 0  0.9367002721196375 -0.4157324987180338 0  -1.90625 0 0  -0.2298618769854927 -0.08904896555277285 0  0.1397131066802196 -0.232031643549068 0  -0.4375 0.420861596936145 0  -0.3483554784186823 -0.1925292675214375 0  0.59375 0 0  -1.327632151430252 0.1057660692693074 0  -0.9830051201906395 0.3115204496273563 0  1.90625 0 0  1.236354269160391 -0.3993990952861421 0  -1.1875 0.4214935578661845 0  0.5625 -0.4247705455161483 0  -0.7349377422908023 0.1635199768201956 0  -1.583328550170068 0.08705835459183674 0  -1.640104497493491 0.2259991665335075 0  -1.467109316827997 0.2210671404637805 0  0.5896070530325394 -0.2690578560650788 0  0.3266472067106532 -0.167734762534917 0  -0.59375 0 0  -0.546875 0.08448914438556519 0  1.71875 0 0  1.156078290691277 -0.2031315651260504 0  1.337704613095238 -0.2433035714285714 0  1.236312294597949 -0.09486607142857142 0  0.1642123379155914 0.3701207892454864 0  0.2345507206108115 -0.04384512844718241 0  -0.4048861533022036 -0.02273791864794379 0  0.03798857341016919 0.3979165301900267 0  -0.4006523628802168 0.334179001454817 0  -0.1135990210174155 -0.393340785880617 0  1.906775738056482 -0.3598876272511091 0  1.720393990929705 -0.4044642857142857 0  -1.71875 0 0  1.15625 0 0  0.78125 0 0  1.53125 0 0  -0.96875 0 0  1.34375 0 0  -1.15625 0 0  1.142828909845958 -0.4078056758504979 0  0.40697192225457 -0.01923608979840619 0  -1.767708120728825 0.08966855818957545 0  -0.6882384924227143 0.4308047125515967 0  -0.3636785153797087 0.1553944795036722 0  -0.2291274285977749 0.08616080495998404 0  -0.281012338688557 -0.01202669255906096 0  0.3108677056378212 0.2586754570559801 0  -1.151751953043632 0.196872287087452 0  -0.5625 0.4330368698813529 0  0.6875 -0.4328910527173583 0  1.405021000845949 -0.3057191080886871 0  0.546875 -0.08025568181818182 0  0.3713523302229579 0.1599284134935842 0  -1.12196127795563 0.2911449911382941 0  -1.276991293863022 0.2522534749828799 0  1.255195006158927 -0.2798057638555942 0  -0.8388532729558951 0.4114132763440825 0  0.8388532729558953 -0.4114132763440825 0  -0.4557763550657601 0.2486174768248819 0  0.2049883534781638 -0.2934473685517857 0  0.3226059585583683 -0.4273378498573185 0  -1.426982449282418 0.4270508114904024 0  1.397702183984896 -0.4056170514003312 0  0.05467855045156804 0.2285245978493705 0  -0.272823163096586 -0.3046204408381326 0  -0.02656096412551515 -0.4126877256833236 0  -1.807235369718798 0.2933328120993839 0  0.1906985117418444 0.1399478964461678 0  -1.688085622354259 0.3115694793217502 0  1.659329587961023 -0.2879395206246994 0  -1.5625 0.437202380952381 0  1.546313524296827 -0.4210926184041992 0  -1.813279560389256 0.4363923695021056 0  -1.926524548924358 0.4265245489243581 0  -0.1751061200004134 -0.1578066000831913 0  0.2891187728554643 -0.268298186700636 0  0.4721679687499999 -0.2490234375 0  0.7276683718449491 -0.1720688736051095 0  0.4744973194747868 -0.4152356216385488 0  0.9322020604693165 -0.07914563824612769 0  -1.275602471792197 0.4154857864535745 0  -0.828125 0.07552171441918698 0  1.3125 -0.5 0  -1.931646474339171 0.178059096704675 0  -0.7167268019830385 0.08016211756451477 0  1.060414578698922 -0.4368616551407768 0  -1.6875 0.5 0  1.9375 -0.5 0  1.739833210773432 -0.3220974693894793 0  -2 0.3125 0  -1.207440692409131 0.07848980221212992 0  -0.04055821595704934 -0.2377097412335854 0  0.1922531441870086 -0.1190381071624572 0  1.509237778147088 -0.2717758217431455 0  0.8901922386429052 -0.2437760747352658 0  -1.498530569603453 0.07867879855510211 0  0.9849923856958628 -0.1870513965806273 0  1.515605916195201 -0.1906351698786736 0  1.439317880445072 -0.08458133750179306 0  1.932491348856277 -0.2050969650933771 0  1.828075655121533 -0.08087981225769847 0  1
[...]
<PointData  Vectors="f_39"> 
<DataArray  type="Float64"  Name="f_39"  NumberOfComponents="3" format="ascii">6.4239429839231107e+01 -1.8762574853484992e+02 0.0000000000000000e+00  9.0297795702322503e+00 -1.6816783939645219e+01 0.0000000000000000e+00  6.0198312865945798e+02 -3.1927047512194014e+02 0.0000000000000000e+00  4.5694054543592512e+02 -4.0420867138606377e+02 0.0000000000000000e+00  4.0343656894658790e+02 -3.7175435406975714e+02 0.0000000000000000e+00  3.5096418414331271e+02 -3.3686174389346832e+02 0.0000000000000000e+00  3.3691037602935876e+02 -2.9660054064348043e+02 0.0000000000000000e+00  3.4013156639258972e+02 -2.7076350576421419e+02 0.0000000000000000e+00  3.4191518154850417e+02 -2.4771485784992711e+02 0.0000000000000000e+00  3.4813949738612098e+02 -2.3241040136205504e+02 0.0000000000000000e+00  3.6216196087600417e+02 -1.9766233474729148e+02 0.0000000000000000e+00  3.6543539094810853e+02 -1.8721511381623776e+02 0.0000000000000000e+00  3.7408524662683476e+02 -1.6961613408674231e+02 0.0000000000000000e+00  3.8189522088650574e+02 -1.5287335019377636e+02 0.0000000000000000e+00  3.8917306330744515e+02 -1.4010997219922857e+02 0.0000000000000000e+00  4.0610098085716578e+02 -1.0880239228111337e+02 0.0000000000000000e+00  4.2697428583205306e+02 -1.0579677946972848e+02 0.0000000000000000e+00  6.6700565832060454e+02 8.2763736202360369e-02 0.0000000000000000e+00  6.7352246307228063e+02 -4.2175830860947322e-01 0.0000000000000000e+00  5.7785970810703930e+02 -4.1358231791544870e+02 0.0000000000000000e+00  4.4786826351337720e+02 -4.3044460663309388e+02 0.0000000000000000e+00  3.8253435659260714e+02 -3.8795941179620377e+02 0.0000000000000000e+00  3.6091372263077903e+02 -3.5671136290850774e+02 0.0000000000000000e+00  3.3886970183147491e+02 -3.1346548618083239e+02 0.0000000000000000e+00  3.3617407683431890e+02 -2.8033907372067307e+02 0.0000000000000000e+00  3.5057224474975084e+02 -2.5288849783193734e+02 0.0000000000000000e+00  3.5429891932952819e+02 -2.3562455319493083e+02 0.0000000000000000e+00  3.6192044364537901e+02 -2.1584038038886897e+02 0.0000000000000000e+00  3.5802592887090486e+02 -2.0526557473959377e+02 0.0000000000000000e+00  3.7918605551308718e+02 -1.7546014833426582e+02 0.0000000000000000e+00  3.8113893861036115e+02 -1.5968483460307138e+02 0.0000000000000000e+00  3.9565534092285941e+02 -1.4045205240588979e+02 0.0000000000000000e+00  4.0539236044664301e+02 -1.3337119793378181e+02 0.0000000000000000e+00  4.2986923901377776e+02 -1.1489898779978624e+02 0.0000000000000000e+00  4.3520312200593446e+02 -3.0927685053484157e+02 0.0000000000000000e+00  4.0757359541640375e+02 -2.7430157620050335e+02 0.0000000000000000e+00  3.9080078808971354e+02 -1.8917287123958428e+02 0.0000000000000000e+00  4.1885487386491019e+02 -1.3054824193261885e+02 0.0000000000000000e+00  4.8459119716533411e+02 -9.6625657332545757e+01 0.0000000000000000e+00  5.4083453485134430e+02 -1.1104732526378135e+02 0.0000000000000000e+00  5.2634135667551470e+02 -2.3547571951346055e+02 0.0000000000000000e+00  4.8757331075644606e+02 -2.9150424925820903e+02 0.0000000000000000e+00  4.2907176366558775e+02 -3.0851408945562702e+02 0.0000000000000000e+00  3.6323074851001644e+02 -2.7933988373246859e+02 0.0000000000000000e+00  3.2856210849815204e+02 -2.2269186479479410e+02 0.0000000000000000e+00  3.7989059419952378e+02 -1.3034294291442498e+02 0.0000000000000000e+00  4.3041619870280078e+02 -9.3356239868611453e+01 0.0000000000000000e+00  4.9985541150467833e+02 -8.8531185748930284e+01 0.0000000000000000e+00  5.4488237782127044e+02 -1.8233917673080376e+02 0.0000000000000000e+00  5.2794591852293934e+02 -2.1394912678833001e+02 0.0000000000000000e+00  4.7602711071777333e+02 -3.0822990671037633e+02 0.0000000000000000e+00  6.3369240628438297e+02 -1.3698913266957842e+02 0.0000000000000000e+00  6.4991040176390823e+02 -2.9179620054499011e+01 0.0000000000000000e+00  5.2177475210390810e+02 -1.5976606822040654e+02 0.0000000000000000e+00  5.5261090380873861e+02 -1.1180059729313224e+02 0.0000000000000000e+00  6.7979611670998599e+02 -1.6652697839353561e+01 0.0000000000000000e+00  5.7144210709524714e+02 -7.1098157075284192e+01 0.0000000000000000e+00  6.8946142662940304e+02 -3.4040558565211313e+02 0.0000000000000000e+00  6.6299889477461477e+02 -8.0292080843114473e+00 0.0000000000000000e+00  5.8931772629222382e+02 -1.2052419184641752e+02 0.0000000000000000e+00  7.0006048740921119e+02 -4.7853710563310294e+01 0.0000000000000000e+00  3.7462366679271310e+02 -2.7754193172724905e+02 0.0000000000000000e+00  6.7496791317551072e+02 -5.8172360259547728e+00 0.0000000000000000e+00  6.5062741811261230e+02 -9.2106018424286290e+01 0.0000000000000000e+00  5.8944018922773648e+02 -1.4154468485570320e+02 0.0000000000000000e+00  2.2903483971470902e+01 -8.9479934507864414e+01 0.0000000000000000e+00  6.6482992044013497e+02 -2.5717843059761956e+00 0.0000000000000000e+00  4.9928275333527790e+02 -7.6351407137866076e+01 0.0000000000000000e+00  5.0753681932509704e+02 -1.6098305524760528e+02 0.0000000000000000e+00  5.4513289420160322e+02 -1.5157190097894406e+02 0.0000000000000000e+00  5.9218094807113073e+02 -1.5606908073223124e+02 0.0000000000000000e+00  6.7204770024301445e+02 -3.1175934179597490e+01 0.0000000000000000e+00  8.7416795396343139e+02 -4.8424137522590212e+02 0.0000000000000000e+00  6.6985746297163769e+02 -1.8412107518935028e+02 0.0000000000000000e+00  5.7861203505231799e+02 -2.4021511522960566e+02 0.0000000000000000e+00  6.7106944663078139e+02 -1.1635243106457011e+01 0.0000000000000000e+00  6.7011818401065511e+02 -3.1339728782740661e-01 0.0000000000000000e+00  6.5896286227364919e+02 -1.5804737664619051e+01 0.0000000000000000e+00  6.7010559477796630e+02 -4.4877848092785015e+00 0.0000000000000000e+00  4.4208658547550863e+02 -5.0467579530796019e+02 0.0000000000000000e+00  6.2564113299038627e+02 -4.6055067010201398e+01 0.0000000000000000e+00  5.9823743457054081e+02 -1.1904156311068839e+02 0.0000000000000000e+00  4.9006388043233130e+02 -1.0079675776063763e+02 0.0000000000000000e+00  4.7112689277709688e+02 -1.2804968192203361e+02 0.0000000000000000e+00  4.7676970217827272e+02 -1.2177451820210297e+02 0.0000000000000000e+00  6.0083161544640336e+02 -1.3479842932810467e+02 0.0000000000000000e+00  6.5589965107950616e+02 -4.7693524922273461e+01 0.0000000000000000e+00  6.7205259109527890e+02 -1.9279007828347751e+01 0.0000000000000000e+00  6.7770323736597823e+02 -1.0753631510917311e+01 0.0000000000000000e+00  4.6462597458102499e+02 -2.0610692964283899e+02 0.0000000000000000e+00  6.8880810861546945e+02 -2.4420608004555046e+01 0.0000000000000000e+00  5.6150919278653475e+02 -1.2923676592469425e+02 0.0000000000000000e+00  6.2285999963545316e+02 -1.3271892861945994e+02 0.0000000000000000e+00  7.3316623129489165e+02 -9.0829254682294504e+01 0.0000000000000000e+00  6.7357686144911463e+02 -2.4295287638405139e+00 0.0000000000000000e+00  2.4845387019469507e+02 -3.4432933581820680e+02 0.0000000000000000e+00  4.9175755024376758e+02 -2.4730492786057340e+02 0.0000000000000000e+00  4.9822432217292561e+02 -3.1904817614146930e+02 0.0000000000000000e+00  4.4004583603914790e+02 -1.8099771330643134e+02 0.0000000000000000e+00  4.0429811949374499e+02 -2.5131044305418601e+02 0.0000000000000000e+00  6.4180019589287940e+02 -4.3320516687627975e+02 0.0000000000000000e+00  6.6697380353263065e+02 -6.5637671426236670e+00 0.0000000000000000e+00  4.1593239350327565e+02 -2.7804826606421517e+02 0.0000000000000000e+00  4.6153095771592990e+02 -2.3547789512850829e+02 0.0000000000000000e+00  5.0812287697311615e+02 -9.1329618896900206e+02 0.0000000000000000e+00  6.6824398046078818e+02 -3.6584076228648388e-01 0.0000000000000000e+00  6.6681414849381906e+02 -1.6462383337684305e+00 0.0000000000000000e+00  4.4961434286006801e+02 -1.6355210939965448e+02 0.0000000000000000e+00  6.6599468981303437e+02 -1.5622284375292873e+01 0.0000000000000000e+00  6.5513917366477904e+02 -2.1775036995869407e+01 0.0000000000000000e+00  6.0992598201697319e+02 -1.8869687092031597e+02 0.0000000000000000e+00  5.7163052688970447e+02 -1.7893738829985634e+02 0.0000000000000000e+00  6.7989028805949579e+02 -5.0547914479229860e+01 0.0000000000000000e+00  5.9686419956670659e+02 -1.3600613664680040e+02 0.0000000000000000e+00  5.6481445420771763e+02 -1.8969301265964236e+02 0.0000000000000000e+00  5.4951372146192148e+02 -1.3706564843810918e+02 0.0000000000000000e+00  6.4263765959247723e+02 -1.6220841377702274e+02 0.0000000000000000e+00  5.8826846829446345e+02 -1.0604009959338221e+02 0.0000000000000000e+00  1.7002110981933306e+01 -4.3401727024277825e+01 0.0000000000000000e+00  6.7163779544781858e+02 -2.0582949656127054e+00 0.0000000000000000e+00  4.8462485981128884e+02 -1.5635389602042164e+02 0.0000000000000000e+00  5.7601099582411666e+02 -1.1515384453639550e+02 0.0000000000000000e+00  6.7011727986856295e+02 -7.7833326970640728e+00 0.0000000000000000e+00  6.6799320096299164e+02 -3.0010334922482391e+00 0.0000000000000000e+00  4.0881709801878640e+02 -2.9331787214354591e+02 0.0000000000000000e+00  5.2031456468936972e+02 -1.0614825018851091e+02 0.0000000000000000e+00  6.6511547540304809e+02 -2.2778436332549802e+01 0.0000000000000000e+00  6.1419111972922940e+02 -1.5670496061405933e+02 0.0000000000000000e+00  5.8431303085432216e+02 -1.3709788048175119e+02 0.0000000000000000e+00  6.6678932949056480e+02 -1.0245475657729630e+01 0.0000000000000000e+00  6.6000328525741691e+02 -3.1571934922318146e+01 0.0000000000000000e+00  4.5285566292205914e+02 -1.5556849470903163e+02 0.0000000000000000e+00  6.0332170798631682e+02 -6.0072868757049385e+01 0.0000000000000000e+00  2.3239452712847429e+02 -4.8492797990289398e+02 0.0000000000000000e+00  6.9139430301443588e+02 -2.3779080925569110e+02 0.0000000000000000e+00  6.3106095144998551e+02 -3.1632016966837756e+02 0.0000000000000000e+00  5.1296172328297371e+02 -1.1844436612823370e+02 0.0000000000000000e+00  6.7358971138386028e+02 -8.9536818517798622e+00 0.0000000000000000e+00  6.9535719518643793e+02 -7.0691840726746463e+01 0.0000000000000000e+00  5.0104248310383423e+02 -1.2521497675705864e+02 0.0000000000000000e+00  5.3746713128730630e+02 -7.7573310705441656e+01 0.0000000000000000e+00  6.7868047902709054e+02 -2.3814115113838696e+01 0.0000000000000000e+00  6.7482763621604056e+02 -1.3935868527763617e+01 0.0000000000000000e+00  6.7233795152827838e+02 -5.7432759132498434e+00 0.0000000000000000e+00  4.0049800530236894e+02 -3.7580353770879708e+02 0.0000000000000000e+00  4.9565819959831163e+02 -1.8673065640850507e+02 0.0000000000000000e+00  5.1242994000183000e+02 -2.4674804037177066e+02 0.0000000000000000e+00  5.9114990950497440e+02 -1.2775999920668936e+02 0.0000000000000000e+00  5.7373273771296203e+02 -1.3214023451649388e+02 0.0000000000000000e+00  6.3527611890592448e+02 -6.2164965737121527e+01 0.0000000000000000e+00  6.8985940041560650e+02 -1.1463686150938165e+02 0.0000000000000000e+00  6.0962012603120411e+02 -1.5689710607117806e+02 0.0000000000000000e+00  6.6235618469956580e+02 -1.2319731734182575e+01 0.0000000000000000e+00  4.4248011346633838e+01 -1.4906661010456571e+02 0.0000000000000000e+00  3.1347889418455793e+02 -1.4645872033950341e+03 0.0000000000000000e+00  6.6397192146911766e+02 -5.7571981898465143e+00 0.0000000000000000e+00  7.5483654158729939e+02 -4.2444933576322654e+02 0.0000000000000000e+00  6.3928476422616097e+02 -3.7137613844649643e+01 0.0000000000000000e+00  6.0752212033776300e+02 -1.2242856386421003e+02 0.0000000000000000e+00  4.6200310172321974e+02 -8.0371058338748028e+01 0.0000000000000000e+00  4.5714040623806289e+02 -1.0267746258719562e+02 0.0000000000000000e+00  6.7183070089093792e+02 -4.1661762875288239e-01 0.0000000000000000e+00  6.3754265271096438e+02 -1.6470989899454506e+02 0.0000000000000000e+00  6.3685868825898058e+02 -2.4193575112716957e+02 0.0000000000000000e+00  4.7176061488291060e+02 -1.4078486751250131e+02 0.0000000000000000e+00  5.4978285567545458e+02 -1.0525824119480423e+02 0.0000000000000000e+00  4.4562422606136823e+02 -3.1855257995034628e+02 0.0000000000000000e+00  4.5341429707048803e+02 -1.2545021788980283e+02 0.0000000000000000e+00  6.2089728149473456e+02 -8.1686720374146418e+01 0.0000000000000000e+00  5.6706622111377567e+02 -1.5392659005672479e+02 0.0000000000000000e+00  6.6787851449677487e+02 -6.1115420083870538e+02 0.0000000000000000e+00  4.0615267743816241e+02 -2.2281475604856237e+02 0.0000000000000000e+00  6.6774022468312148e+02 -6.5425949178839488e+01 0.0000000000000000e+00  4.0379367561996173e+02 -1.9745210456304952e+02 0.0000000000000000e+00  5.9518871933257515e+02 -1.4036958983808518e+02 0.0000000000000000e+00  5.7331663444665594e+02 -2.1653856005539595e+02 0.0000000000000000e+00  4.4909088124518678e+02 -2.2079981964628172e+02 0.0000000000000000e+00  6.9745087818485501e+02 -3.5866119657180974e+01 0.0000000000000000e+00  6.8358662761543587e+02 -3.4467195993433570e+01 0.0000000000000000e+00  5.4043995875785390e+02 -2.3740284872922484e+02 0.0000000000000000e+00  6.6968643485362281e+02 -2.0702251680421009e+00 0.0000000000000000e+00  4.5955722426837775e+02 -2.3180806119692846e+02 0.0000000000000000e+00  2.4877602970412863e+02 -6.8358241503369823e+02 0.0000000000000000e+00  4.3268163325620617e+02 -2.8564998864328015e+02 0.0000000000000000e+00  6.0715310789455964e+02 -1.2075807653548188e+02 0.0000000000000000e+00  4.8320853111579061e+02 -1.3877573051423693e+02 0.0000000000000000e+00  4.2738519562194784e+02 -2.5257333478665686e+02 0.0000000000000000e+00  5.7167204860498032e+02 -1.5096198471066060e+02 0.0000000000000000e+00  4.8464349010586875e+02 -1.4259014220205449e+02 0.0000000000000000e+00  6.1329145180158957e+02 -1.3420436564233384e+02 0.0000000000000000e+00  6.6616839751975556e+02 -4.1132728676766654e+01 0.0000000000000000e+00  5.9471367163932371e+02 -1.3624047162437341e+02 0.0000000000000000e+00  4.5239887705432687e+02 -1.1286152890114441e+02 0.0000000000000000e+00  4.8920622355253244e+02 -9.6434018909463546e+01 0.0000000000000000e+00  5.6841593611198130e+02 -3.6629905196828219e+02 0.0000000000000000e+00  4.7656281465110641e+02 -1.1310229127302571e+02 0.0000000000000000e+00  4.6087756630399383e+02 -1.2345090782436472e+02 0.0000000000000000e+00  6.7217275929297489e+02 -3.6777947952613768e+00 0.0000000000000000e+00  6.4896669571160976e+02 -3.5210771156911974e+01 0.0000000000000000e+00  1.6488446961065520e+02 -3.3835385066655277e+02 0.0000000000000000e+00  4.0682882399210149e+02 -2.8200351425724568e+02 0.0000000000000000e+00  4.7706846611018193e+02 -1.2857260940364276e+02 0.0000000000000000e+00  5.3802722900662036e+02 -1.1854576696144568e+02 0.0000000000000000e+00  3.7803140434940821e+02 -2.8162986931183917e+02 0.0000000000000000e+00  7.7703030931620890e+02 -1.4139034209079082e+02 0.0000000000000000e+00  5.2738952577920963e+02 -2.0374034099784950e+02 0.0000000000000000e+00  6.0250956813375035e+02 -1.4430384667679067e+02 0.0000000000000000e+00  6.7359126596947556e+02 -1.0608504668779020e+00 0.0000000000000000e+00  6.6231298869619957e+02 -1.8888866982573720e+01 0.0000000000000000e+00  6.3322366434650803e+02 -1.7930283731225668e+02 0.0000000000000000e+00  5.9114594114521344e+02 -7.7411197903264167e+01 0.0000000000000000e+00  5.9965889337087754e+02 -1.4168414755894048e+02 0.0000000000000000e+00  4.3297632530274041e+02 -3.0350579463595187e+02 0.0000000000000000e+00  4.8225943638876885e+02 -4.1132646861055616e+02 0.0000000000000000e+00  5.4245450494093586e+02 -2.9100257217957738e+02 0.0000000000000000e+00  6.2717238021935532e+02 -1.1190911435463890e+02 0.0000000000000000e+00  5.1914370231311250e+02 -1.9254891617308490e+02 0.0000000000000000e+00  6.4567951126754360e+02 -1.7822335037204942e+02 0.0000000000000000e+00  6.1498253374490105e+02 -2.0498178967825305e+02 0.0000000000000000e+00  6.7448110641837980e+02 -4.5250327007470270e+00 0.0000000000000000e+00  6.7214559733001136e+02 -2.4748182567177995e+01 0.0000000000000000e+00  6.6988263805239671e+02 -1.5637102354515209e+01 0.0000000000000000e+00  6.7707152817062206e+02 -1.8763635940480402e+01 0.0000000000000000e+00  4.0596156645881592e+02 -1.8783429642889689e+02 0.0000000000000000e+00  4.3493176054870560e+02 -2.2334495516020880e+02 0.0000000000000000e+00  4.6365557313692727e+02 -3.2441593784998884e+02 0.0000000000000000e+00  4.3212895858018197e+02 -1.4021568047979690e+02 0.0000000000000000e+00  5.2501258791448743e+02 -1.3722008978329868e+02 0.0000000000000000e+00  4.0896278574106833e+02 -1.5819837941722537e+02 0.0000000000000000e+00  6.6835607199604181e+02 -1.4249479977891990e+00 0.0000000000000000e+00  6.6687009983816779e+02 -4.1188272565086370e+00 0.0000000000000000e+00  3.1295299152442357e+02 -3.2489870160077925e+02 0.0000000000000000e+00  6.8431372708624576e+02 -1.8550977253085296e+01 0.0000000000000000e+00  7.1637224926374745e+02 -6.3202470865220668e+01 0.0000000000000000e+00  6.7591036344293229e+02 -7.7707237440997021e+00 0.0000000000000000e+00  5.7687590083303724e+02 -1.2510662397442199e+02 0.0000000000000000e+00  6.7829554182328434e+02 -1.3396750370158593e+01 0.0000000000000000e+00  5.3783897429313072e+02 -1.4073271239194369e+02 0.0000000000000000e+00  6.6027972757732289e+02 -2.2451623899192292e+01 0.0000000000000000e+00  5.3801682436672820e+02 -3.1952885711284011e+02 0.0000000000000000e+00  3.1322687448504337e+02 -3.9566377240831042e+02 0.0000000000000000e+00  5.8329761593310809e+02 -1.2009340530294806e+02 0.0000000000000000e+00  5.0041646953356377e+02 -1.9721579219146034e+02 0.0000000000000000e+00  4.1484071610193627e+02 -1.9238023233896010e+02 0.0000000000000000e+00  4.1778653891448954e+02 -2.6930950752903300e+02 0.0000000000000000e+00  3.7788157982141570e+02 -2.5706943156626733e+02 0.0000000000000000e+00  5.8031009487113920e+02 -1.7072936588953408e+02 0.0000000000000000e+00  5.6212966898338891e+02 -1.2056506380648818e+02 0.0000000000000000e+00  6.2089338573325915e+02 -6.0496671466069941e+01 0.0000000000000000e+00  6.6765036302452984e+02 -1.3348518198439292e+01 0.0000000000000000e+00  6.9815883382366883e+02 -2.1537740260812464e+02 0.0000000000000000e+00  3.9614115259369055e+02 -3.1014134648380525e+02 0.0000000000000000e+00  6.0233075568642141e+02 -1.6788037086819230e+02 0.0000000000000000e+00  5.8551643529000569e+02 -2.1132315614458130e+02 0.0000000000000000e+00  6.6822657402213815e+02 -1.9065539438788100e+01 0.0000000000000000e+00  6.0167417491297192e+02 -1.2595661865380930e+02 0.0000000000000000e+00  6.4246098129997222e+02 -4.6372509681615433e+01 0.0000000000000000e+00  5.3865321502818222e+02 -1.6778452785149747e+02 0.0000000000000000e+00  4.9597282124408019e+02 -1.2756987888202801e+02 0.0000000000000000e+00  5.2504326634799702e+02 -9.6672411872736845e+01 0.0000000000000000e+00  6.7036195142914039e+02 -2.7802282875793321e+02 0.0000000000000000e+00  6.6460603701770106e+02 -1.2564787495532288e+01 0.0000000000000000e+00  4.8630871242812310e+02 -1.8846741890456792e+02 0.0000000000000000e+00  3.7348153627379457e+02 -2.2659568778552304e+02 0.0000000000000000e+00  4.3357617576771020e+02 -1.3313503397803152e+02 0.0000000000000000e+00  4.5621746339962840e+02 -6.5368643817951465e+02 0.0000000000000000e+00  4.4837265842845608e+02 -2.7560632565487992e+02 0.0000000000000000e+00  5.5429132310366037e+02 -4.9434105011810112e+02 0.0000000000000000e+00  6.6880319917014617e+02 -5.9103662441789320e+00 0.0000000000000000e+00  6.8932540074680276e+02 -3.6543304950879383e+02 0.0000000000000000e+00  6.6567250093690450e+02 -8.2052054651488646e+00 0.0000000000000000e+00  8.3520501175217623e+02 -8.0588585631247634e+02 0.0000000000000000e+00  4.9709621370739467e+02 -1.2277632629258314e+03 0.0000000000000000e+00  4.3445262521202312e+02 -2.7437036662294628e+02 0.0000000000000000e+00  5.1012038306720189e+02 -1.3865605859624853e+02 0.0000000000000000e+00  5.8590737601884257e+02 -1.4550415522243392e+02 0.0000000000000000e+00  6.7522791692780231e+02 -8.9564823562865328e+01 0.0000000000000000e+00  5.7045932787392235e+02 -8.8747242826009511e+01 0.0000000000000000e+00  6.9125759903947721e+02 -4.3785340486656331e+01 0.0000000000000000e+00  6.4412997056779875e+02 -2.0726605168073712e+02 0.0000000000000000e+00  5.98291977489