<?xml version="1.0"?>
<VTKFile type="UnstructuredGrid"  version="0.1"  >
<UnstructuredGrid>
<Piece  NumberOfPoints="1981" NumberOfCells="3668">
<Points>
<DataArray  type="Float64"  NumberOfComponents="3"  format="ascii">-2 0.5 0  -2 0 0  -0.5 0 0  -0.4968561049466213 -0.05598223805165387 0  -0.4874639560909119 -0.1112604669781569 0  -0.4719416651541838 -0.1651395309775835 0  -0.4504844339512096 -0.216941869558779 0  -0.4233620996141421 -0.2660160382576682 0  -0.3909157412340148 -0.3117449009293669 0  -0.3535533905932738 -0.3535533905932737 0  -0.3117449009293669 -0.3909157412340148 0  -0.2660160382576683 -0.4233620996141421 0  -0.2169418695587791 -0.4504844339512095 0  -0.1651395309775836 -0.4719416651541837 0  -0.1112604669781573 -0.4874639560909118 0  -0.05598223805165402 -0.4968561049466213 0  -9.184850993605148e-17 -0.5 0  2 -0.5 0  2 0 0  0.5 0 0  0.4968561049466213 0.05598223805165393 0  0.4874639560909118 0.1112604669781572 0  0.4719416651541838 0.1651395309775835 0  0.4504844339512096 0.2169418695587791 0  0.4233620996141421 0.2660160382576683 0  0.3909157412340149 0.3117449009293667 0  0.3535533905932738 0.3535533905932737 0  0.3117449009293668 0.3909157412340149 0  0.2660160382576683 0.4233620996141421 0  0.2169418695587791 0.4504844339512096 0  0.1651395309775837 0.4719416651541837 0  0.1112604669781572 0.4874639560909118 0  0.05598223805165384 0.4968561049466213 0  3.061616997868383e-17 0.5 0  0.1398708344106534 0.05418624992807294 0  0.15 0 0  0.1398708344106534 -0.05418624992807295 0  0.1108513375830988 -0.1010543465469837 0  0.06686075336648065 -0.1342744937032594 0  0.01384025391949536 -0.1493601264442552 0  -0.04104944851081246 -0.1442738464759228 0  -0.09039519545688858 -0.1197025840920358 0  -0.1275325703594421 -0.07896482443160337 0  -0.1474459649525853 -0.02756242767248552 0  -0.1474459649525853 0.02756242767248555 0  -0.1275325703594421 0.07896482443160341 0  -0.09039519545688844 0.1197025840920359 0  -0.04104944851081243 0.1442738464759228 0  0.0138402539194953 0.1493601264442552 0  0.06686075336648074 0.1342744937032593 0  0.1108513375830989 0.1010543465469836 0  -1 0.5 0  1 -0.5 0  -1.25 0 0  -0.5 0.5 0  1.25 0 0  0.4999999999999999 -0.5 0  -1.5 0.5 0  1.5 -0.5 0  -0.875 0 0  0.875 0 0  -1.625 0 0  1.625 0 0  0.6875 -0.2500000000000001 0  -0.6875 0.25 0  -2 0.25 0  1.75 -0.5 0  0.2499999999999999 -0.5 0  -0.3583969912126916 0.25 0  0.3749999999999999 -0.25 0  -1.0625 0.21875 0  1.0625 -0.21875 0  -1.75 0.5 0  -1.25 0.5 0  -1.375 0.25 0  1.4375 -0.21875 0  2 -0.25 0  1.25 -0.5 0  1.7375 -0.2375 0  -1.7375 0.2375 0  0.75 -0.5 0  -0.75 0.5 0  -0.25 0.5 0  -0.1570377317087672 0.3153742794659282 0  0.1249999999999999 -0.3338777090152827 0  -0.8826650943396226 0.3263561320754717 0  0.8826650943396227 -0.3263561320754717 0  1.25 -0.1897321428571428 0  1.4375 0 0  -1.4375 0 0  1.0625 0 0  -1.0625 0 0  -0.6875 0 0  0.6875 0 0  1.8125 0 0  -1.8125 0 0  0.3263011380546194 -0.06940056902730968 0  -1.554017857142857 0.1790178571428572 0  0.08847100915780901 0.3109433440851622 0  -0.2412983234264066 -0.2156373655531345 0  -1.625 0.3744047619047619 0  1.625 -0.3744047619047619 0  0.2743272717766799 0.1698562554772697 0  -0.3279338175957848 0.06764246763930631 0  -1.863068181818182 0.3630681818181818 0  2 -0.375 0  1.875 -0.5 0  -0.05442366733490933 -0.3203147637646457 0  1.321986607142857 -0.3448660714285714 0  1.125 -0.5 0  -1.209821428571429 0.3236607142857143 0  -0.5229484956063458 0.1781011282952406 0  0.9067445847815293 -0.1625224987586892 0  -0.8335714777578845 0.1642411083184135 0  -1.237063437253354 0.1627182813733228 0  -0.4947697009489606 0.3378596801347012 0  0.53125 -0.171875 0  0.5156249999999999 -0.3359375 0  -2 0.125 0  1.873225308641975 -0.1497685185185185 0  0.2341337966231563 -0.1911191776024666 0  -0.625 0.5 0  1.587453076345555 -0.2288757784711196 0  1.8125 -0.3654761904761905 0  -0.3326862624810256 -0.08869875963335262 0  -0.375 0.5 0  1.174048204529175 -0.319244854540162 0  -1.067618031042359 0.3674567846760797 0  -0.96875 0.109375 0  1.481463366596639 -0.3565498074229692 0  1.023503306098383 -0.3576535124663073 0  -0.2265388519390893 0.1866542405407749 0  0.625 -0.5 0  -1.852445652173913 0.1432065217391304 0  -1.375 0.5 0  -1.479101577239454 0.3541992113802732 0  0.2708871299591885 -0.3541935649795943 0  1.520204106978579 -0.109375 0  0.78125 -0.1026731411563172 0  -0.3125 0.3785994323952442 0  0.3749999999999999 -0.5 0  1.141568346088435 -0.109375 0  1.358431653911565 -0.109375 0  1.668712727161379 -0.1246887081867154 0  -1.673050595238095 0.1226339285714286 0  -1.34375 0 0  -1.431523109243698 0.1313182773109244 0  -0.7546231943577876 0.3660317014105531 0  -0.6233296454587935 0.3645528204344609 0  0.7546231943577878 -0.3660317014105531 0  0.6537002726710706 -0.125 0  -0.6441338591766993 0.125 0  1.375 -0.5 0  -2 0.375 0  -1.875 0.5 0  1.625 -0.5 0  -1.625 0.5 0  0.875 -0.5 0  -0.875 0.5 0  0.1249999999999999 -0.5 0  -0.125 0.5 0  2 -0.125 0  -1.125 0.5 0  -1.354082022940739 0.375 0  -0.03500388138134332 0.2732363193989585 0  0.3955099577726473 -0.3752808566622692 0  0.3596026196703111 0.0631070919012526 0  -0.0625 0.394061918116807 0  0.6342080192637126 -0.3582597885274255 0  -1.123666900137815 0.109375 0  -1.744588744588745 0.3803841991341991 0  0.2210084381421171 0.2925777566973838 0  0.8072251313743133 -0.2315819627814412 0  -0.1814335426834733 -0.3282792760620681 0  -0.9356634513979559 0.2218154628239019 0  0.4183753556420685 -0.1414382112841371 0  -0.1238894550978499 -0.2292394949250368 0  0.96875 0 0  1.013652292192466 -0.1102204462032291 0  -0.4393328341626322 0.09834605222123384 0  1.882206434331873 -0.2686982850037661 0  0.1426699461850768 0.2146575767791519 0  -1.886304127069339 0.251758104550396 0  0.2495743011762567 0.06264742837969955 0  -0.78125 0 0  0.04042933102838756 -0.2590839715717854 0  -1.53125 0 0  -0.5823692714154002 0.2663576540687616 0  -0.2594008044921133 0.2871583817002197 0  -0.9375 0.4157678007976423 0  0.9696186653311423 -0.2675997292662616 0  -0.7942971416386473 0.2646257048857303 0  0.06249999999999992 -0.4169388545076413 0  0.1874999999999999 -0.4169388545076413 0  -1.562839467699977 0.2864000626355251 0  -0.1875 0.4157529178973974 0  -0.1223698320396133 0.2179970721626365 0  1.770639498024741 -0.1399156735731578 0  0.9367002721196375 -0.4157324987180338 0  -1.90625 0 0  -0.2298618769854927 -0.08904896555277285 0  0.1397131066802196 -0.232031643549068 0  -0.4375 0.420861596936145 0  -0.3483554784186823 -0.1925292675214375 0  0.59375 0 0  -1.327632151430252 0.1057660692693074 0  -0.9830051201906395 0.3115204496273563 0  1.90625 0 0  1.236354269160391 -0.3993990952861421 0  -1.1875 0.4214935578661845 0  0.5625 -0.4247705455161483 0  -0.7349377422908023 0.1635199768201956 0  -1.583328550170068 0.08705835459183674 0  -1.640104497493491 0.2259991665335075 0  -1.467109316827997 0.2210671404637805 0  0.5896070530325394 -0.2690578560650788 0  0.3266472067106532 -0.167734762534917 0  -0.59375 0 0  -0.546875 0.08448914438556519 0  1.71875 0 0  1.156078290691277 -0.2031315651260504 0  1.337704613095238 -0.2433035714285714 0  1.236312294597949 -0.09486607142857142 0  0.1642123379155914 0.3701207892454864 0  0.2345507206108115 -0.04384512844718241 0  -0.4048861533022036 -0.02273791864794379 0  0.03798857341016919 0.3979165301900267 0  -0.4006523628802168 0.334179001454817 0  -0.1135990210174155 -0.393340785880617 0  1.906775738056482 -0.3598876272511091 0  1.720393990929705 -0.4044642857142857 0  -1.71875 0 0  1.15625 0 0  0.78125 0 0  1.53125 0 0  -0.96875 0 0  1.34375 0 0  -1.15625 0 0  1.142828909845958 -0.4078056758504979 0  0.40697192225457 -0.01923608979840619 0  -1.767708120728825 0.08966855818957545 0  -0.6882384924227143 0.4308047125515967 0  -0.3636785153797087 0.1553944795036722 0  -0.2291274285977749 0.08616080495998404 0  -0.281012338688557 -0.01202669255906096 0  0.3108677056378212 0.2586754570559801 0  -1.151751953043632 0.196872287087452 0  -0.5625 0.4330368698813529 0  0.6875 -0.4328910527173583 0  1.405021000845949 -0.3057191080886871 0  0.546875 -0.08025568181818182 0  0.3713523302229579 0.1599284134935842 0  -1.12196127795563 0.2911449911382941 0  -1.276991293863022 0.2522534749828799 0  1.255195006158927 -0.2798057638555942 0  -0.8388532729558951 0.4114132763440825 0  0.8388532729558953 -0.4114132763440825 0  -0.4557763550657601 0.2486174768248819 0  0.2049883534781638 -0.2934473685517857 0  0.3226059585583683 -0.4273378498573185 0  -1.426982449282418 0.4270508114904024 0  1.397702183984896 -0.4056170514003312 0  0.05467855045156804 0.2285245978493705 0  -0.272823163096586 -0.3046204408381326 0  -0.02656096412551515 -0.4126877256833236 0  -1.807235369718798 0.2933328120993839 0  0.1906985117418444 0.1399478964461678 0  -1.688085622354259 0.3115694793217502 0  1.659329587961023 -0.2879395206246994 0  -1.5625 0.437202380952381 0  1.546313524296827 -0.4210926184041992 0  -1.813279560389256 0.4363923695021056 0  -1.926524548924358 0.4265245489243581 0  -0.1751061200004134 -0.1578066000831913 0  0.2891187728554643 -0.268298186700636 0  0.4721679687499999 -0.2490234375 0  0.7276683718449491 -0.1720688736051095 0  0.4744973194747868 -0.4152356216385488 0  0.9322020604693165 -0.07914563824612769 0  -1.275602471792197 0.4154857864535745 0  -0.828125 0.07552171441918698 0  1.3125 -0.5 0  -1.931646474339171 0.178059096704675 0  -0.7167268019830385 0.08016211756451477 0  1.060414578698922 -0.4368616551407768 0  -1.6875 0.5 0  1.9375 -0.5 0  1.739833210773432 -0.3220974693894793 0  -2 0.3125 0  -1.207440692409131 0.07848980221212992 0  -0.04055821595704934 -0.2377097412335854 0  0.1922531441870086 -0.1190381071624572 0  1.509237778147088 -0.2717758217431455 0  0.8901922386429052 -0.2437760747352658 0  -1.498530569603453 0.07867879855510211 0  0.9849923856958628 -0.1870513965806273 0  1.515605916195201 -0.1906351698786736 0  1.439317880445072 -0.08458133750179306 0  1.932491348856277 -0.2050969650933771 0  1.828075655121533 -0.08087981225769847 0  1
[...]
<PointData  Vectors="f_39"> 
<DataArray  type="Float64"  Name="f_39"  NumberOfComponents="3" format="ascii">2.3984474395864655e+01 -3.1302342319966847e-01 0.0000000000000000e+00  3.9817081012583189e-02 -2.9872225227152494e-01 0.0000000000000000e+00  2.1868934822303750e+01 -7.6823968069311537e+00 0.0000000000000000e+00  2.0985245823851923e+01 -8.4355686477717544e+00 0.0000000000000000e+00  2.0650007479307394e+01 -8.3044350994891207e+00 0.0000000000000000e+00  2.0396413206729349e+01 -8.0332202959715300e+00 0.0000000000000000e+00  2.0481236264922966e+01 -7.7564257820195275e+00 0.0000000000000000e+00  2.0842588418399249e+01 -7.6668681907253742e+00 0.0000000000000000e+00  2.1032825093593001e+01 -7.7183787877490060e+00 0.0000000000000000e+00  2.1188320895156266e+01 -7.7869462388633774e+00 0.0000000000000000e+00  2.1209190278691210e+01 -8.0175839956416812e+00 0.0000000000000000e+00  2.1173365777824355e+01 -8.0574510382787441e+00 0.0000000000000000e+00  2.1108266608751656e+01 -8.0755773037809355e+00 0.0000000000000000e+00  2.1003107115549717e+01 -8.0510306210887546e+00 0.0000000000000000e+00  2.0941189010926617e+01 -8.0273460784203099e+00 0.0000000000000000e+00  2.0760580498454406e+01 -7.9071662220031893e+00 0.0000000000000000e+00  2.0602048637416519e+01 -7.7024512006316543e+00 0.0000000000000000e+00  2.1703751482503030e+01 -1.2676843056301561e-02 0.0000000000000000e+00  2.2127980953589731e+01 -2.0432719829597202e-02 0.0000000000000000e+00  2.2111406835240867e+01 -8.8953169166538579e+00 0.0000000000000000e+00  2.1018099906142524e+01 -9.4683684014431293e+00 0.0000000000000000e+00  2.0352457359744143e+01 -9.0705592666664216e+00 0.0000000000000000e+00  2.0108583316959631e+01 -8.6650658445578799e+00 0.0000000000000000e+00  2.0292158692610023e+01 -8.1889058848410112e+00 0.0000000000000000e+00  2.0626823857725903e+01 -8.0341578310801403e+00 0.0000000000000000e+00  2.0862372122667601e+01 -8.1468776762957802e+00 0.0000000000000000e+00  2.0890961649009675e+01 -8.1997345339710801e+00 0.0000000000000000e+00  2.0913015678027417e+01 -8.2892832499793148e+00 0.0000000000000000e+00  2.0869091565933029e+01 -8.3334524016390628e+00 0.0000000000000000e+00  2.0781709533132812e+01 -8.3581641475683668e+00 0.0000000000000000e+00  2.0676151106334160e+01 -8.3189145480693121e+00 0.0000000000000000e+00  2.0507943370595424e+01 -8.2523389055366394e+00 0.0000000000000000e+00  2.0425293759029888e+01 -8.2296670580865356e+00 0.0000000000000000e+00  2.0165867832249265e+01 -7.9995596496862538e+00 0.0000000000000000e+00  2.0390993500681041e+01 -9.1773744817149918e+00 0.0000000000000000e+00  1.9624749451789789e+01 -8.5585053107068809e+00 0.0000000000000000e+00  1.9315184361573849e+01 -7.2516358748399368e+00 0.0000000000000000e+00  1.9771653132499001e+01 -6.2537025780967932e+00 0.0000000000000000e+00  2.1064176571233880e+01 -5.7042109012405247e+00 0.0000000000000000e+00  2.2155031367178932e+01 -6.4105087626528796e+00 0.0000000000000000e+00  2.2392881515466541e+01 -8.1677152376830247e+00 0.0000000000000000e+00  2.1749184790146593e+01 -8.9748637433119622e+00 0.0000000000000000e+00  2.0831577699002121e+01 -9.1671859070511452e+00 0.0000000000000000e+00  1.9548059012526334e+01 -8.6878866410012439e+00 0.0000000000000000e+00  1.8881351280211870e+01 -7.7237692427486726e+00 0.0000000000000000e+00  1.9620091755875521e+01 -6.1985671894516035e+00 0.0000000000000000e+00  2.0661508292765504e+01 -5.8188084231446924e+00 0.0000000000000000e+00  2.1781081515929650e+01 -6.3183034221246244e+00 0.0000000000000000e+00  2.1993662015736348e+01 -7.8356140078034571e+00 0.0000000000000000e+00  2.1866865226602712e+01 -8.1969801740519337e+00 0.0000000000000000e+00  2.1022649714577661e+01 -9.2527854532905991e+00 0.0000000000000000e+00  2.3444657028646649e+01 -5.6918754694355567e+00 0.0000000000000000e+00  2.0683740155950876e+01 -2.7836706310530688e+00 0.0000000000000000e+00  1.6633947965917191e+01 -9.0772873194089634e+00 0.0000000000000000e+00  2.0013516039623298e+01 -5.8238539776408853e+00 0.0000000000000000e+00  2.2782113134255404e+01 -1.5270866443507145e+00 0.0000000000000000e+00  2.0194691918472138e+01 -5.4607724016123838e+00 0.0000000000000000e+00  3.1290051579604675e+01 -1.8587998664317492e+01 0.0000000000000000e+00  2.1334405465604238e+01 -6.1616637064833746e-01 0.0000000000000000e+00  2.0266812627181189e+01 -5.5659793843985588e+00 0.0000000000000000e+00  2.2969355240255762e+01 -3.6057411502822148e+00 0.0000000000000000e+00  1.0345957108290857e+01 -2.3931857237157665e+01 0.0000000000000000e+00  2.2305511326141549e+01 -3.9625673800200761e-01 0.0000000000000000e+00  2.1803182724134995e+01 -4.7789653581751113e+00 0.0000000000000000e+00  2.1167903086302744e+01 -5.7877090756109366e+00 0.0000000000000000e+00  1.3498845777109954e+01 -3.3759177596423878e-01 0.0000000000000000e+00  2.1602621617505537e+01 -1.9128736827142584e-01 0.0000000000000000e+00  2.0082954787123018e+01 -6.9740309591058818e+00 0.0000000000000000e+00  2.0527963971152609e+01 -6.6325131568901483e+00 0.0000000000000000e+00  2.0938415521447762e+01 -6.5915571249938782e+00 0.0000000000000000e+00  2.1286126467302882e+01 -7.6834502954447297e+00 0.0000000000000000e+00  2.1983142061187017e+01 -2.5463323282050694e+00 0.0000000000000000e+00  3.3788188278917659e+01 -3.2243430502410774e+01 0.0000000000000000e+00  2.6758418636981940e+01 -8.9559428305571078e+00 0.0000000000000000e+00  2.1600946702023595e+01 -1.4583874325474767e+01 0.0000000000000000e+00  2.2014017392945238e+01 -9.5134707766967364e-01 0.0000000000000000e+00  2.1904576191010051e+01 -3.0040857103714031e-02 0.0000000000000000e+00  2.0951135996383702e+01 -1.4626462284463426e+00 0.0000000000000000e+00  2.1919444616469395e+01 -3.3020260132327267e-01 0.0000000000000000e+00  1.9541813079130652e+01 -3.1026674155548935e+01 0.0000000000000000e+00  2.0477650209618421e+01 -4.2429525401601333e+00 0.0000000000000000e+00  2.1303023234524879e+01 -4.8999101186382399e+00 0.0000000000000000e+00  1.9930835043008312e+01 -6.7672599479637094e+00 0.0000000000000000e+00  2.0404270621549255e+01 -6.9201935861876862e+00 0.0000000000000000e+00  2.0719398570720518e+01 -7.0316473791821474e+00 0.0000000000000000e+00  2.1802188775765078e+01 -5.9390795801413638e+00 0.0000000000000000e+00  2.1380676349843604e+01 -3.4675980113988052e+00 0.0000000000000000e+00  2.2067031126731219e+01 -1.6502295932821287e+00 0.0000000000000000e+00  2.2585274202734066e+01 -8.2417470917725744e-01 0.0000000000000000e+00  1.3224252806836155e+01 -1.4534125929240501e+01 0.0000000000000000e+00  2.3089259597158087e+01 -2.4113059752916941e+00 0.0000000000000000e+00  1.9192650300190774e+01 -6.5380665021691193e+00 0.0000000000000000e+00  2.1449402131419358e+01 -4.9601024079454605e+00 0.0000000000000000e+00  2.3541197241466417e+01 -4.2988927109356663e+00 0.0000000000000000e+00  2.2178641593493033e+01 -1.3547141496989573e-01 0.0000000000000000e+00  1.0122159586599563e+01 -3.0953030896184465e+01 0.0000000000000000e+00  2.0876869324083287e+01 -7.7160612556611001e+00 0.0000000000000000e+00  1.8040395920357195e+01 -2.1033038414918497e+01 0.0000000000000000e+00  2.0975398402739291e+01 -8.0233844469674853e+00 0.0000000000000000e+00  2.1032390357603532e+01 -8.1565859261265210e+00 0.0000000000000000e+00  2.7200341660819362e+01 -2.5454863610583541e+01 0.0000000000000000e+00  2.1676407330818066e+01 -4.9566149997154557e-01 0.0000000000000000e+00  2.0764290195036342e+01 -8.4774361695278895e+00 0.0000000000000000e+00  2.0517316233938239e+01 -7.3468536659628922e+00 0.0000000000000000e+00  2.5378509070433658e+01 -4.1925268565859668e+01 0.0000000000000000e+00  2.1770985847686028e+01 -2.8999206456331195e-02 0.0000000000000000e+00  2.1675861490730369e+01 -9.6130693271071627e-02 0.0000000000000000e+00  2.1238018586660971e+01 -7.6978416018520583e+00 0.0000000000000000e+00  2.1544750929375375e+01 -1.2987668972315978e+00 0.0000000000000000e+00  2.0787567829577338e+01 -2.0671084587834003e+00 0.0000000000000000e+00  2.3156562034767273e+01 -9.8876343870464680e+00 0.0000000000000000e+00  2.1201284498552095e+01 -6.3381136005181320e+00 0.0000000000000000e+00  2.2333929646481106e+01 -3.4051906869145561e+00 0.0000000000000000e+00  2.1015854784383791e+01 -5.9278556145520351e+00 0.0000000000000000e+00  1.9835178287713916e+01 -1.0550790616871227e+01 0.0000000000000000e+00  2.0566530295440248e+01 -6.0566755881550316e+00 0.0000000000000000e+00  2.2145740726141092e+01 -6.0524089923057778e+00 0.0000000000000000e+00  2.0887706540095678e+01 -5.7244582470173739e+00 0.0000000000000000e+00  7.1277582984051211e+00 -3.2183806996162306e-01 0.0000000000000000e+00  2.2033163132603349e+01 -1.3563364439475997e-01 0.0000000000000000e+00  2.0575674887881434e+01 -6.8791576406027293e+00 0.0000000000000000e+00  2.0495662369680122e+01 -5.2075112713963412e+00 0.0000000000000000e+00  2.1950328300393878e+01 -5.7738621082895181e-01 0.0000000000000000e+00  2.1753102884476888e+01 -1.9105059979514949e-01 0.0000000000000000e+00  2.0620013136207493e+01 -8.0821666392926961e+00 0.0000000000000000e+00  1.9859528686587922e+01 -6.3670735745170770e+00 0.0000000000000000e+00  2.1513278364505080e+01 -1.9713043335856355e+00 0.0000000000000000e+00  2.2943695693674844e+01 -7.2946447253366964e+00 0.0000000000000000e+00  2.0338784357179968e+01 -6.5319735121523266e+00 0.0000000000000000e+00  2.1605232775265677e+01 -8.0942295513099738e-01 0.0000000000000000e+00  2.1286847137707330e+01 -2.6647641337032284e+00 0.0000000000000000e+00  2.0324081865236021e+01 -6.7331781547122196e+00 0.0000000000000000e+00  2.0364976687608909e+01 -4.8740556044773884e+00 0.0000000000000000e+00  1.2678365339735224e+01 -3.4215340678559436e+01 0.0000000000000000e+00  2.9294594855027096e+01 -1.2604662888596506e+01 0.0000000000000000e+00  2.6134034517922142e+01 -1.8379849942100318e+01 0.0000000000000000e+00  2.0506914539189221e+01 -6.7420675290916057e+00 0.0000000000000000e+00  2.2216215177596034e+01 -6.8388162961956922e-01 0.0000000000000000e+00  2.2680209507941278e+01 -4.0214671523940178e+00 0.0000000000000000e+00  2.0224000909310657e+01 -6.6182331535711034e+00 0.0000000000000000e+00  1.9950517763871915e+01 -6.2134980541157470e+00 0.0000000000000000e+00  2.2529798749541893e+01 -2.0906886267576126e+00 0.0000000000000000e+00  2.2385002665786580e+01 -1.2001844087898987e+00 0.0000000000000000e+00  2.2111436540196593e+01 -4.1552677522152776e-01 0.0000000000000000e+00  1.5035726871084274e+01 -2.6857749246168705e+01 0.0000000000000000e+00  1.4766760343371709e+01 -1.2023658536520021e+01 0.0000000000000000e+00  1.6876598838911832e+01 -1.6008796888260605e+01 0.0000000000000000e+00  2.1297553038021896e+01 -5.4411001597767212e+00 0.0000000000000000e+00  2.0821459384226596e+01 -5.6440926714929294e+00 0.0000000000000000e+00  2.1072184051947467e+01 -4.2667073555671653e+00 0.0000000000000000e+00  2.2650284454317681e+01 -4.9672010689018578e+00 0.0000000000000000e+00  2.1502107801313894e+01 -5.7907068155302905e+00 0.0000000000000000e+00  2.1133559234863252e+01 -1.0435346031999089e+00 0.0000000000000000e+00  1.9116624249715453e+01 -3.3399481590724517e-01 0.0000000000000000e+00  3.3744846181339867e+01 -4.5201391532569048e+01 0.0000000000000000e+00  2.1469714155473525e+01 -3.9989924058896642e-01 0.0000000000000000e+00  3.2926732013592130e+01 -2.4971333619220232e+01 0.0000000000000000e+00  2.0547343409310241e+01 -3.3587700788392496e+00 0.0000000000000000e+00  2.2316559100234777e+01 -4.9248526870807021e+00 0.0000000000000000e+00  2.0344763257734538e+01 -7.3884483504232579e+00 0.0000000000000000e+00  1.9878216261740050e+01 -7.2794769503975285e+00 0.0000000000000000e+00  2.2033588810126254e+01 -3.0789784022064635e-02 0.0000000000000000e+00  2.5010934327356903e+01 -7.1912543350360085e+00 0.0000000000000000e+00  2.5808364882922032e+01 -1.3409365032241112e+01 0.0000000000000000e+00  2.0996133238317807e+01 -7.3021492095148233e+00 0.0000000000000000e+00  2.0516074122109679e+01 -6.2155442472581850e+00 0.0000000000000000e+00  2.0781248396586445e+01 -8.5279468296660657e+00 0.0000000000000000e+00  2.0401838508237191e+01 -7.4701693459901586e+00 0.0000000000000000e+00  2.1078561957229965e+01 -4.9245079597601613e+00 0.0000000000000000e+00  1.9429670593806762e+01 -7.9504215195648555e+00 0.0000000000000000e+00  2.7862102327407158e+01 -3.2781939146689545e+01 0.0000000000000000e+00  2.0906970043085597e+01 -8.2950020531185107e+00 0.0000000000000000e+00  2.1959937799982225e+01 -3.9354066503620220e+00 0.0000000000000000e+00  2.1178518842691929e+01 -8.0102236103252551e+00 0.0000000000000000e+00  2.1141019132668507e+01 -6.4305800588209303e+00 0.0000000000000000e+00  2.1560042448991897e+01 -7.0731695312366636e+00 0.0000000000000000e+00  2.1444117613128746e+01 -8.1301109270352789e+00 0.0000000000000000e+00  2.3079554953869717e+01 -3.1769684021498081e+00 0.0000000000000000e+00  2.2620878548336684e+01 -2.7848576600023947e+00 0.0000000000000000e+00  2.1162865181975345e+01 -7.0623783977168824e+00 0.0000000000000000e+00  2.1886640965234395e+01 -1.3789207811839990e-01 0.0000000000000000e+00  2.1184550427142739e+01 -8.3809636485895105e+00 0.0000000000000000e+00  1.6872558549652162e+01 -3.8864234146355756e+01 0.0000000000000000e+00  2.0473735264269656e+01 -8.5661643828471892e+00 0.0000000000000000e+00  2.0766594799101618e+01 -5.0867720220969099e+00 0.0000000000000000e+00  2.1328097635950989e+01 -6.9948932656392344e+00 0.0000000000000000e+00  1.1434198601154211e+01 -1.8738749429313014e+01 0.0000000000000000e+00  2.0969932740757589e+01 -6.0094455666712188e+00 0.0000000000000000e+00  2.0372777903671523e+01 -6.7388554543636108e+00 0.0000000000000000e+00  2.2639336880159441e+01 -5.6871579490442459e+00 0.0000000000000000e+00  2.1753895932030311e+01 -3.0327225708109080e+00 0.0000000000000000e+00  2.1286654078124162e+01 -5.8165966233326030e+00 0.0000000000000000e+00  2.0673861122219446e+01 -7.4447896137584832e+00 0.0000000000000000e+00  2.0354492940292882e+01 -7.0712821996376478e+00 0.0000000000000000e+00  2.3056714234894219e+01 -2.2185080942453112e+01 0.0000000000000000e+00  2.0101350484511709e+01 -7.0039755217652084e+00 0.0000000000000000e+00  2.0717930858601832e+01 -6.5479408764015199e+00 0.0000000000000000e+00  2.2068756029501827e+01 -2.6544875131114348e-01 0.0000000000000000e+00  2.0852952749478998e+01 -3.1186702216723163e+00 0.0000000000000000e+00  8.7996239480430116e+00 -3.2152752797187233e+01 0.0000000000000000e+00  2.0463456878122575e+01 -8.4607660974891363e+00 0.0000000000000000e+00  2.0841904667839938e+01 -6.6792886839873979e+00 0.0000000000000000e+00  2.0149953098939399e+01 -6.1329723287133966e+00 0.0000000000000000e+00  2.0763007641595060e+01 -7.9690520077858871e+00 0.0000000000000000e+00  2.4171048578772485e+01 -5.4949274773966890e+00 0.0000000000000000e+00  1.7313689870790508e+01 -1.2333153560605638e+01 0.0000000000000000e+00  2.1982116341266167e+01 -6.6173939737557435e+00 0.0000000000000000e+00  2.2131192162505556e+01 -6.5932249305096183e-02 0.0000000000000000e+00  2.1228465341543099e+01 -1.6807243372264193e+00 0.0000000000000000e+00  2.4930946984901727e+01 -8.5525953193691606e+00 0.0000000000000000e+00  2.0534950050549885e+01 -5.2971493377842886e+00 0.0000000000000000e+00  2.1216075620592427e+01 -5.7166129076523289e+00 0.0000000000000000e+00  1.3980023828050376e+01 -2.2157041616266561e+01 0.0000000000000000e+00  1.9636339587709969e+01 -2.5763993637757714e+01 0.0000000000000000e+00  1.9992538535338063e+01 -1.7950379908676947e+01 0.0000000000000000e+00  2.1536983873072106e+01 -5.4043221958263956e+00 0.0000000000000000e+00  2.0949592343178761e+01 -7.0699144641959908e+00 0.0000000000000000e+00  2.2330823370246083e+01 -5.9874770193343183e+00 0.0000000000000000e+00  2.1875889013773275e+01 -6.4463326697086698e+00 0.0000000000000000e+00  2.2240560628650087e+01 -2.8291893396507450e-01 0.0000000000000000e+00  2.2082636299775682e+01 -2.0959738897406157e+00 0.0000000000000000e+00  2.1882617371352246e+01 -1.3061970636071558e+00 0.0000000000000000e+00  2.2496018469655993e+01 -1.6481847399493612e+00 0.0000000000000000e+00  2.0825475433731217e+01 -8.2234579745140142e+00 0.0000000000000000e+00  2.0152978370675566e+01 -7.6636724059060901e+00 0.0000000000000000e+00  2.0899537372947727e+01 -7.9567438220279563e+00 0.0000000000000000e+00  2.0552399774135854e+01 -7.8327320448958009e+00 0.0000000000000000e+00  2.0403612717332557e+01 -6.4329345472649413e+00 0.0000000000000000e+00  2.1047653668539919e+01 -7.8865818668786769e+00 0.0000000000000000e+00  2.1793292543271818e+01 -8.6221318656058907e-02 0.0000000000000000e+00  2.1674937427725169e+01 -2.7458465408038502e-01 0.0000000000000000e+00  1.0431788313599736e+01 -2.8231771691501002e+01 0.0000000000000000e+00  2.2934174069893530e+01 -1.8817098544706818e+00 0.0000000000000000e+00  2.2989649238960013e+01 -3.8870881489679387e+00 0.0000000000000000e+00  2.2405750273839974e+01 -5.5245896548342555e-01 0.0000000000000000e+00  1.9794489620913883e+01 -6.0784344349649189e+00 0.0000000000000000e+00  2.2701271128990147e+01 -1.1801312925838099e+00 0.0000000000000000e+00  1.7914637735967581e+01 -7.4542212004948754e+00 0.0000000000000000e+00  2.1149513824797943e+01 -1.9956015189352641e+00 0.0000000000000000e+00  2.1646096153340846e+01 -8.2684653245235005e+00 0.0000000000000000e+00  1.2728454325653690e+01 -3.0076704907822016e+01 0.0000000000000000e+00  2.0949037651363199e+01 -5.1972965128895519e+00 0.0000000000000000e+00  2.0685720812905654e+01 -6.9150625483106962e+00 0.0000000000000000e+00  1.9875749824678003e+01 -7.0209300692444252e+00 0.0000000000000000e+00  2.0310392673500999e+01 -7.9916780385282831e+00 0.0000000000000000e+00  2.0811690368202754e+01 -8.2594354786289799e+00 0.0000000000000000e+00  2.0716210516788234e+01 -9.0854979677554208e+00 0.0000000000000000e+00  2.0428050184291799e+01 -5.6085416602714808e+00 0.0000000000000000e+00  2.0710260850609561e+01 -4.5118158133589272e+00 0.0000000000000000e+00  2.1671828011679779e+01 -1.1137949323516467e+00 0.0000000000000000e+00  2.3045318465668917e+01 -6.6218128050796983e+00 0.0000000000000000e+00  2.0573784561804771e+01 -8.4623405329804218e+00 0.0000000000000000e+00  2.2139761203247922e+01 -8.4530303491875802e+00 0.0000000000000000e+00  2.1635057756726503e+01 -1.1799379398621545e+01 0.0000000000000000e+00  2.1745327638388137e+01 -1.6253938588471026e+00 0.0000000000000000e+00  2.1762948455378044e+01 -5.3165842581313791e+00 0.0000000000000000e+00  2.0865903268938556e+01 -3.6530648532859460e+00 0.0000000000000000e+00  2.0768408301130194e+01 -6.4636600326134879e+00 0.0000000000000000e+00  2.0638437016227851e+01 -6.8360233157876937e+00 0.0000000000000000e+00  2.0222976475721385e+01 -6.5848225215146412e+00 0.0000000000000000e+00  2.8395642382701592e+01 -1.5400663047822563e+01 0.0000000000000000e+00  2.1380774775681406e+01 -1.0186331412044769e+00 0.0000000000000000e+00  2.1454354108459313e+01 -7.9337398904611440e+00 0.0000000000000000e+00  2.1119665200383508e+01 -7.9752228235071181e+00 0.0000000000000000e+00  2.0843379481962874e+01 -7.6604097102359958e+00 0.0000000000000000e+00  2.1404848461144578e+01 -3.5317710860524194e+01 0.0000000000000000e+00  2.0963448913939352e+01 -8.7331029983650073e+00 0.0000000000000000e+00  2.3471803554178553e+01 -2.8712831644647419e+01 0.0000000000000000e+00  2.1817252388663096e+01 -4.3480708877518137e-01 0.0000000000000000e+00  3.0204041849526782e+01 -2.1283126480444853e+01 0.0000000000000000e+00  2.1508179534904329e+01 -6.2064937559502686e-01 0.0000000000000000e+00  3.1812312634165924e+01 -3.7994336950289011e+01 0.0000000000000000e+00  2.6464538696638282e+01 -4.6487838513809812e+01 0.0000000000000000e+00  2.1116589211852780e+01 -8.6130556613535934e+00 0.0000000000000000e+00  2.0645710241034035e+01 -6.7501705777768413e+00 0.0000000000000000e+00  2.1275410412072485e+01 -6.1978468926017376e+00 0.0000000000000000e+00  2.2317017393874682e+01 -4.5232302252602539e+00 0.0000000000000000e+00  2.0472094146266254e+01 -5.7264099749944233e+00 0.0000000000000000e+00  2.2795196837710808e+01 -3.3221920394074469e+00 0.0000000000000000e+00  2.6199405120972621e+01 -1.0624380427284800e+01 0.0000000000000000e+00  2.0666329342