<?xml version="1.0"?>
<VTKFile type="UnstructuredGrid"  version="0.1"  >
<UnstructuredGrid>
<Piece  NumberOfPoints="1981" NumberOfCells="3668">
<Points>
<DataArray  type="Float64"  NumberOfComponents="3"  format="ascii">-2 0.5 0  -2 0 0  -0.5 0 0  -0.4968561049466213 -0.05598223805165387 0  -0.4874639560909119 -0.1112604669781569 0  -0.4719416651541838 -0.1651395309775835 0  -0.4504844339512096 -0.216941869558779 0  -0.4233620996141421 -0.2660160382576682 0  -0.3909157412340148 -0.3117449009293669 0  -0.3535533905932738 -0.3535533905932737 0  -0.3117449009293669 -0.3909157412340148 0  -0.2660160382576683 -0.4233620996141421 0  -0.2169418695587791 -0.4504844339512095 0  -0.1651395309775836 -0.4719416651541837 0  -0.1112604669781573 -0.4874639560909118 0  -0.05598223805165402 -0.4968561049466213 0  -9.184850993605148e-17 -0.5 0  2 -0.5 0  2 0 0  0.5 0 0  0.4968561049466213 0.05598223805165393 0  0.4874639560909118 0.1112604669781572 0  0.4719416651541838 0.1651395309775835 0  0.4504844339512096 0.2169418695587791 0  0.4233620996141421 0.2660160382576683 0  0.3909157412340149 0.3117449009293667 0  0.3535533905932738 0.3535533905932737 0  0.3117449009293668 0.3909157412340149 0  0.2660160382576683 0.4233620996141421 0  0.2169418695587791 0.4504844339512096 0  0.1651395309775837 0.4719416651541837 0  0.1112604669781572 0.4874639560909118 0  0.05598223805165384 0.4968561049466213 0  3.061616997868383e-17 0.5 0  0.1398708344106534 0.05418624992807294 0  0.15 0 0  0.1398708344106534 -0.05418624992807295 0  0.1108513375830988 -0.1010543465469837 0  0.06686075336648065 -0.1342744937032594 0  0.01384025391949536 -0.1493601264442552 0  -0.04104944851081246 -0.1442738464759228 0  -0.09039519545688858 -0.1197025840920358 0  -0.1275325703594421 -0.07896482443160337 0  -0.1474459649525853 -0.02756242767248552 0  -0.1474459649525853 0.02756242767248555 0  -0.1275325703594421 0.07896482443160341 0  -0.09039519545688844 0.1197025840920359 0  -0.04104944851081243 0.1442738464759228 0  0.0138402539194953 0.1493601264442552 0  0.06686075336648074 0.1342744937032593 0  0.1108513375830989 0.1010543465469836 0  -1 0.5 0  1 -0.5 0  -1.25 0 0  -0.5 0.5 0  1.25 0 0  0.4999999999999999 -0.5 0  -1.5 0.5 0  1.5 -0.5 0  -0.875 0 0  0.875 0 0  -1.625 0 0  1.625 0 0  0.6875 -0.2500000000000001 0  -0.6875 0.25 0  -2 0.25 0  1.75 -0.5 0  0.2499999999999999 -0.5 0  -0.3583969912126916 0.25 0  0.3749999999999999 -0.25 0  -1.0625 0.21875 0  1.0625 -0.21875 0  -1.75 0.5 0  -1.25 0.5 0  -1.375 0.25 0  1.4375 -0.21875 0  2 -0.25 0  1.25 -0.5 0  1.7375 -0.2375 0  -1.7375 0.2375 0  0.75 -0.5 0  -0.75 0.5 0  -0.25 0.5 0  -0.1570377317087672 0.3153742794659282 0  0.1249999999999999 -0.3338777090152827 0  -0.8826650943396226 0.3263561320754717 0  0.8826650943396227 -0.3263561320754717 0  1.25 -0.1897321428571428 0  1.4375 0 0  -1.4375 0 0  1.0625 0 0  -1.0625 0 0  -0.6875 0 0  0.6875 0 0  1.8125 0 0  -1.8125 0 0  0.3263011380546194 -0.06940056902730968 0  -1.554017857142857 0.1790178571428572 0  0.08847100915780901 0.3109433440851622 0  -0.2412983234264066 -0.2156373655531345 0  -1.625 0.3744047619047619 0  1.625 -0.3744047619047619 0  0.2743272717766799 0.1698562554772697 0  -0.3279338175957848 0.06764246763930631 0  -1.863068181818182 0.3630681818181818 0  2 -0.375 0  1.875 -0.5 0  -0.05442366733490933 -0.3203147637646457 0  1.321986607142857 -0.3448660714285714 0  1.125 -0.5 0  -1.209821428571429 0.3236607142857143 0  -0.5229484956063458 0.1781011282952406 0  0.9067445847815293 -0.1625224987586892 0  -0.8335714777578845 0.1642411083184135 0  -1.237063437253354 0.1627182813733228 0  -0.4947697009489606 0.3378596801347012 0  0.53125 -0.171875 0  0.5156249999999999 -0.3359375 0  -2 0.125 0  1.873225308641975 -0.1497685185185185 0  0.2341337966231563 -0.1911191776024666 0  -0.625 0.5 0  1.587453076345555 -0.2288757784711196 0  1.8125 -0.3654761904761905 0  -0.3326862624810256 -0.08869875963335262 0  -0.375 0.5 0  1.174048204529175 -0.319244854540162 0  -1.067618031042359 0.3674567846760797 0  -0.96875 0.109375 0  1.481463366596639 -0.3565498074229692 0  1.023503306098383 -0.3576535124663073 0  -0.2265388519390893 0.1866542405407749 0  0.625 -0.5 0  -1.852445652173913 0.1432065217391304 0  -1.375 0.5 0  -1.479101577239454 0.3541992113802732 0  0.2708871299591885 -0.3541935649795943 0  1.520204106978579 -0.109375 0  0.78125 -0.1026731411563172 0  -0.3125 0.3785994323952442 0  0.3749999999999999 -0.5 0  1.141568346088435 -0.109375 0  1.358431653911565 -0.109375 0  1.668712727161379 -0.1246887081867154 0  -1.673050595238095 0.1226339285714286 0  -1.34375 0 0  -1.431523109243698 0.1313182773109244 0  -0.7546231943577876 0.3660317014105531 0  -0.6233296454587935 0.3645528204344609 0  0.7546231943577878 -0.3660317014105531 0  0.6537002726710706 -0.125 0  -0.6441338591766993 0.125 0  1.375 -0.5 0  -2 0.375 0  -1.875 0.5 0  1.625 -0.5 0  -1.625 0.5 0  0.875 -0.5 0  -0.875 0.5 0  0.1249999999999999 -0.5 0  -0.125 0.5 0  2 -0.125 0  -1.125 0.5 0  -1.354082022940739 0.375 0  -0.03500388138134332 0.2732363193989585 0  0.3955099577726473 -0.3752808566622692 0  0.3596026196703111 0.0631070919012526 0  -0.0625 0.394061918116807 0  0.6342080192637126 -0.3582597885274255 0  -1.123666900137815 0.109375 0  -1.744588744588745 0.3803841991341991 0  0.2210084381421171 0.2925777566973838 0  0.8072251313743133 -0.2315819627814412 0  -0.1814335426834733 -0.3282792760620681 0  -0.9356634513979559 0.2218154628239019 0  0.4183753556420685 -0.1414382112841371 0  -0.1238894550978499 -0.2292394949250368 0  0.96875 0 0  1.013652292192466 -0.1102204462032291 0  -0.4393328341626322 0.09834605222123384 0  1.882206434331873 -0.2686982850037661 0  0.1426699461850768 0.2146575767791519 0  -1.886304127069339 0.251758104550396 0  0.2495743011762567 0.06264742837969955 0  -0.78125 0 0  0.04042933102838756 -0.2590839715717854 0  -1.53125 0 0  -0.5823692714154002 0.2663576540687616 0  -0.2594008044921133 0.2871583817002197 0  -0.9375 0.4157678007976423 0  0.9696186653311423 -0.2675997292662616 0  -0.7942971416386473 0.2646257048857303 0  0.06249999999999992 -0.4169388545076413 0  0.1874999999999999 -0.4169388545076413 0  -1.562839467699977 0.2864000626355251 0  -0.1875 0.4157529178973974 0  -0.1223698320396133 0.2179970721626365 0  1.770639498024741 -0.1399156735731578 0  0.9367002721196375 -0.4157324987180338 0  -1.90625 0 0  -0.2298618769854927 -0.08904896555277285 0  0.1397131066802196 -0.232031643549068 0  -0.4375 0.420861596936145 0  -0.3483554784186823 -0.1925292675214375 0  0.59375 0 0  -1.327632151430252 0.1057660692693074 0  -0.9830051201906395 0.3115204496273563 0  1.90625 0 0  1.236354269160391 -0.3993990952861421 0  -1.1875 0.4214935578661845 0  0.5625 -0.4247705455161483 0  -0.7349377422908023 0.1635199768201956 0  -1.583328550170068 0.08705835459183674 0  -1.640104497493491 0.2259991665335075 0  -1.467109316827997 0.2210671404637805 0  0.5896070530325394 -0.2690578560650788 0  0.3266472067106532 -0.167734762534917 0  -0.59375 0 0  -0.546875 0.08448914438556519 0  1.71875 0 0  1.156078290691277 -0.2031315651260504 0  1.337704613095238 -0.2433035714285714 0  1.236312294597949 -0.09486607142857142 0  0.1642123379155914 0.3701207892454864 0  0.2345507206108115 -0.04384512844718241 0  -0.4048861533022036 -0.02273791864794379 0  0.03798857341016919 0.3979165301900267 0  -0.4006523628802168 0.334179001454817 0  -0.1135990210174155 -0.393340785880617 0  1.906775738056482 -0.3598876272511091 0  1.720393990929705 -0.4044642857142857 0  -1.71875 0 0  1.15625 0 0  0.78125 0 0  1.53125 0 0  -0.96875 0 0  1.34375 0 0  -1.15625 0 0  1.142828909845958 -0.4078056758504979 0  0.40697192225457 -0.01923608979840619 0  -1.767708120728825 0.08966855818957545 0  -0.6882384924227143 0.4308047125515967 0  -0.3636785153797087 0.1553944795036722 0  -0.2291274285977749 0.08616080495998404 0  -0.281012338688557 -0.01202669255906096 0  0.3108677056378212 0.2586754570559801 0  -1.151751953043632 0.196872287087452 0  -0.5625 0.4330368698813529 0  0.6875 -0.4328910527173583 0  1.405021000845949 -0.3057191080886871 0  0.546875 -0.08025568181818182 0  0.3713523302229579 0.1599284134935842 0  -1.12196127795563 0.2911449911382941 0  -1.276991293863022 0.2522534749828799 0  1.255195006158927 -0.2798057638555942 0  -0.8388532729558951 0.4114132763440825 0  0.8388532729558953 -0.4114132763440825 0  -0.4557763550657601 0.2486174768248819 0  0.2049883534781638 -0.2934473685517857 0  0.3226059585583683 -0.4273378498573185 0  -1.426982449282418 0.4270508114904024 0  1.397702183984896 -0.4056170514003312 0  0.05467855045156804 0.2285245978493705 0  -0.272823163096586 -0.3046204408381326 0  -0.02656096412551515 -0.4126877256833236 0  -1.807235369718798 0.2933328120993839 0  0.1906985117418444 0.1399478964461678 0  -1.688085622354259 0.3115694793217502 0  1.659329587961023 -0.2879395206246994 0  -1.5625 0.437202380952381 0  1.546313524296827 -0.4210926184041992 0  -1.813279560389256 0.4363923695021056 0  -1.926524548924358 0.4265245489243581 0  -0.1751061200004134 -0.1578066000831913 0  0.2891187728554643 -0.268298186700636 0  0.4721679687499999 -0.2490234375 0  0.7276683718449491 -0.1720688736051095 0  0.4744973194747868 -0.4152356216385488 0  0.9322020604693165 -0.07914563824612769 0  -1.275602471792197 0.4154857864535745 0  -0.828125 0.07552171441918698 0  1.3125 -0.5 0  -1.931646474339171 0.178059096704675 0  -0.7167268019830385 0.08016211756451477 0  1.060414578698922 -0.4368616551407768 0  -1.6875 0.5 0  1.9375 -0.5 0  1.739833210773432 -0.3220974693894793 0  -2 0.3125 0  -1.207440692409131 0.07848980221212992 0  -0.04055821595704934 -0.2377097412335854 0  0.1922531441870086 -0.1190381071624572 0  1.509237778147088 -0.2717758217431455 0  0.8901922386429052 -0.2437760747352658 0  -1.498530569603453 0.07867879855510211 0  0.9849923856958628 -0.1870513965806273 0  1.515605916195201 -0.1906351698786736 0  1.439317880445072 -0.08458133750179306 0  1.932491348856277 -0.2050969650933771 0  1.828075655121533 -0.08087981225769847 0  1
[...]
<PointData  Vectors="f_39"> 
<DataArray  type="Float64"  Name="f_39"  NumberOfComponents="3" format="ascii">-1.3160265804145636e+61 -5.7569706566984143e+61 0.0000000000000000e+00  1.7897336924882546e+60 -1.2570124922163180e+60 0.0000000000000000e+00  1.7816118276425703e+61 -1.3070038703669208e+61 0.0000000000000000e+00  8.6754643688220193e+60 -1.7093736183585360e+61 0.0000000000000000e+00  5.2492226046552599e+60 -1.3843206357823584e+61 0.0000000000000000e+00  4.4345515613662850e+60 -1.0467656145619892e+61 0.0000000000000000e+00  4.7361379816304691e+60 -8.9929063964218578e+60 0.0000000000000000e+00  5.5064393516632068e+60 -7.8621935910527576e+60 0.0000000000000000e+00  5.7043700660578953e+60 -7.0165558203588089e+60 0.0000000000000000e+00  6.1288027176403087e+60 -6.4107835037511674e+60 0.0000000000000000e+00  7.0681805492548305e+60 -5.0824215982727650e+60 0.0000000000000000e+00  7.2520782009554784e+60 -4.5307879643572754e+60 0.0000000000000000e+00  7.7352875636467354e+60 -3.7259775721755718e+60 0.0000000000000000e+00  8.1610511222295233e+60 -2.9704466242675110e+60 0.0000000000000000e+00  8.4710960726069913e+60 -2.4143293828234904e+60 0.0000000000000000e+00  9.2582128984596364e+60 -1.1724515860821009e+60 0.0000000000000000e+00  1.0156981098084484e+61 -7.7895486434278575e+59 0.0000000000000000e+00  1.7859487498542858e+61 2.3458493615394647e+55 0.0000000000000000e+00  1.7861427837452684e+61 -6.8701988257571186e+55 0.0000000000000000e+00  1.4073248216645442e+61 -1.5152181353553926e+61 0.0000000000000000e+00  8.0160841259162352e+60 -1.6113167662587987e+61 0.0000000000000000e+00  4.6990433737349729e+60 -1.2998756641137954e+61 0.0000000000000000e+00  4.2221732968921024e+60 -1.1026369465017890e+61 0.0000000000000000e+00  4.7863488037050116e+60 -9.1613352078164812e+60 0.0000000000000000e+00  5.1381478921987050e+60 -7.8868686317719395e+60 0.0000000000000000e+00  5.9905596731643502e+60 -6.8087813546005754e+60 0.0000000000000000e+00  6.3566042923948380e+60 -6.1625170036123006e+60 0.0000000000000000e+00  6.7815554021787931e+60 -5.3432926778662610e+60 0.0000000000000000e+00  7.0178519062082479e+60 -4.7613448012159456e+60 0.0000000000000000e+00  7.8492795879838587e+60 -3.5876664322184818e+60 0.0000000000000000e+00  8.0321324542699222e+60 -2.9449045548958168e+60 0.0000000000000000e+00  8.6223751389468770e+60 -2.1371442095852351e+60 0.0000000000000000e+00  8.9217569303738015e+60 -1.6259121085884406e+60 0.0000000000000000e+00  1.0033863913693945e+61 -6.6605260066567374e+59 0.0000000000000000e+00  7.9568179763388606e+60 -1.2935474075500059e+61 0.0000000000000000e+00  4.4240094818433307e+60 -1.0016890336037088e+61 0.0000000000000000e+00  3.7974085618443730e+60 -3.4868248937934637e+60 0.0000000000000000e+00  6.7247034634540851e+60 9.8705559685499198e+59 0.0000000000000000e+00  1.2084988545535758e+61 2.9314029909504088e+60 0.0000000000000000e+00  1.6469239291678377e+61 3.1557651395550675e+59 0.0000000000000000e+00  1.6676921188574188e+61 -6.9163870982545910e+60 0.0000000000000000e+00  1.4071541089830921e+61 -1.0955437595536537e+61 0.0000000000000000e+00  1.0269781256927067e+61 -1.2553070493225576e+61 0.0000000000000000e+00  5.2705094384381910e+60 -1.0920863475806343e+61 0.0000000000000000e+00  3.1068189841541218e+60 -7.3069982066690499e+60 0.0000000000000000e+00  5.5222961361071462e+60 -7.0462342741235240e+59 0.0000000000000000e+00  9.5999671242148588e+60 2.4278020199874428e+60 0.0000000000000000e+00  1.4491402653753904e+61 2.1738128350976455e+60 0.0000000000000000e+00  1.7310382905051677e+61 -4.0246001245895779e+60 0.0000000000000000e+00  1.7018634007935812e+61 -6.5147927447915165e+60 0.0000000000000000e+00  1.1090181757702562e+61 -1.2996399296972822e+61 0.0000000000000000e+00  1.7414456603540251e+61 -4.7959188112473023e+58 0.0000000000000000e+00  1.7665061300871928e+61 -4.2343423734451506e+58 0.0000000000000000e+00  1.7263900325604027e+61 -5.7327416325238120e+58 0.0000000000000000e+00  1.4946785656592953e+61 -3.2656381321977176e+59 0.0000000000000000e+00  1.7903131362468663e+61 -7.3018920420048479e+57 0.0000000000000000e+00  1.5275932750845176e+61 -3.4649641072299413e+59 0.0000000000000000e+00  1.9296822216936662e+61 -3.4657396760693203e+59 0.0000000000000000e+00  1.7851848421686479e+61 -1.4981500153252712e+57 0.0000000000000000e+00  1.7947934433305661e+61 -9.1814473287012460e+58 0.0000000000000000e+00  1.8313936463207191e+61 -1.0090086092000385e+59 0.0000000000000000e+00  1.4520777641094390e+61 -5.0259165489150418e+59 0.0000000000000000e+00  1.7864273268957094e+61 -4.7561109540070487e+56 0.0000000000000000e+00  1.7581332888090504e+61 -1.4287842905412520e+60 0.0000000000000000e+00  1.7276575970055014e+61 -1.2086943473846557e+60 0.0000000000000000e+00  2.8444258419006477e+60 -1.7840212252902281e+61 0.0000000000000000e+00  1.7858464355604056e+61 -1.3638546880786445e+56 0.0000000000000000e+00  1.2667479190090700e+61 -1.9559587829329399e+59 0.0000000000000000e+00  1.3211504077645504e+61 -2.9429675788296000e+60 0.0000000000000000e+00  1.3548601230862957e+61 -3.0896256623799463e+60 0.0000000000000000e+00  1.7539007723862019e+61 -2.2361584374586357e+59 0.0000000000000000e+00  1.7877961435638303e+61 -1.3390627168362439e+59 0.0000000000000000e+00  2.7634213621028555e+61 -1.5588205869599613e+60 0.0000000000000000e+00  1.7813131464333650e+61 -8.1645713031014558e+58 0.0000000000000000e+00  1.7523388754664748e+61 -7.2688760560408903e+59 0.0000000000000000e+00  1.7863242109055544e+61 -1.1655018146035536e+58 0.0000000000000000e+00  1.7860185656386515e+61 -1.6256103564753885e+56 0.0000000000000000e+00  1.7822779140268006e+61 -7.3915372515540359e+57 0.0000000000000000e+00  1.7860245970821702e+61 -1.9221414499046396e+57 0.0000000000000000e+00  1.5614136912277182e+61 -6.6706953879968588e+60 0.0000000000000000e+00  1.7002046418645118e+61 -1.2178218627096443e+59 0.0000000000000000e+00  1.6816474996336473e+61 -1.1540035676013954e+59 0.0000000000000000e+00  1.2628808262763806e+61 -2.5911605444513661e+59 0.0000000000000000e+00  1.1791022224979442e+61 -1.1211882679692320e+60 0.0000000000000000e+00  1.1836161640577240e+61 -1.1153400931505308e+60 0.0000000000000000e+00  1.7339616802641186e+61 -3.2153425299903231e+59 0.0000000000000000e+00  1.7657433610397872e+61 -3.2894660803812257e+59 0.0000000000000000e+00  1.7871544097075001e+61 -3.9396449500416792e+58 0.0000000000000000e+00  1.7872269034626181e+61 -2.2959994443282953e+57 0.0000000000000000e+00  1.6555144020145169e+61 -1.4882613393202130e+59 0.0000000000000000e+00  1.7993938290115963e+61 -2.2623750858043814e+58 0.0000000000000000e+00  1.7573832408038075e+61 -3.0587754702126335e+58 0.0000000000000000e+00  1.9006729914810875e+61 -3.4939009782922739e+59 0.0000000000000000e+00  1.9766301176180240e+61 -4.2023447836206223e+59 0.0000000000000000e+00  1.7861624213476523e+61 -1.4074803636651019e+56 0.0000000000000000e+00  9.3570533124394899e+60 -1.0537482787247796e+60 0.0000000000000000e+00  1.0420851878192984e+61 -7.4628727274715257e+60 0.0000000000000000e+00  1.6535953947032295e+61 -1.7771748926814882e+60 0.0000000000000000e+00  1.1012466080500793e+61 -4.1720372069626197e+60 0.0000000000000000e+00  8.6384634186195951e+60 -7.9507754308173526e+60 0.0000000000000000e+00  1.9769494639024437e+61 -2.8817840316089602e+60 0.0000000000000000e+00  1.7857560368028523e+61 -2.9903735255870792e+57 0.0000000000000000e+00  8.2217025117903809e+60 -9.1582348587569015e+60 0.0000000000000000e+00  1.0557283171127325e+61 -7.2393121720655250e+60 0.0000000000000000e+00  2.3376623214840753e+61 -2.1365020623875315e+61 0.0000000000000000e+00  1.7859380369747086e+61 -9.1131883555992819e+55 0.0000000000000000e+00  1.7859218007262648e+61 -4.4137283270798299e+55 0.0000000000000000e+00  1.1373423421421057e+61 -3.3934375393892258e+60 0.0000000000000000e+00  1.7846376928236094e+61 -1.9964529901329602e+58 0.0000000000000000e+00  1.7774879293255664e+61 -1.8271576548583845e+58 0.0000000000000000e+00  1.7620258116826866e+61 -2.7721236300411240e+59 0.0000000000000000e+00  1.6873158534478018e+61 -3.5756492581075748e+60 0.0000000000000000e+00  1.8052523496723014e+61 -3.2690166970849278e+59 0.0000000000000000e+00  1.7772093868640539e+61 -5.0056169988938373e+59 0.0000000000000000e+00  1.7413206426949556e+61 -3.0788754334552515e+59 0.0000000000000000e+00  1.5232198087788043e+61 -1.5548887644047454e+60 0.0000000000000000e+00  1.7439373500161900e+61 -3.8261299998246688e+60 0.0000000000000000e+00  1.5514609801569732e+61 -1.6019901821555522e+60 0.0000000000000000e+00  2.3818062298866066e+60 -6.8941465995629975e+60 0.0000000000000000e+00  1.7860608139637191e+61 -5.4869819987247731e+56 0.0000000000000000e+00  1.0640600771452180e+61 -2.4598959386625102e+60 0.0000000000000000e+00  1.6060282504012843e+61 -2.2966185227649219e+59 0.0000000000000000e+00  1.7860834307179625e+61 -4.6347363798501379e+57 0.0000000000000000e+00  1.7858993364326912e+61 -8.1612760018590863e+56 0.0000000000000000e+00  7.7154223899775723e+60 -1.0267503095708270e+61 0.0000000000000000e+00  1.3727312923925633e+61 -3.3556741740137282e+59 0.0000000000000000e+00  1.7829078042771810e+61 -5.8568887958199012e+58 0.0000000000000000e+00  1.7526814307155992e+61 -1.7238775025694815e+59 0.0000000000000000e+00  1.7671924497574502e+61 -1.8816386649058642e+59 0.0000000000000000e+00  1.7854309241104470e+61 -7.3533304313582927e+57 0.0000000000000000e+00  1.7760108618840922e+61 -1.2643217422977985e+59 0.0000000000000000e+00  1.0133105692996307e+61 -2.3759798257535753e+60 0.0000000000000000e+00  1.6318706996426527e+61 -2.5223173393881255e+59 0.0000000000000000e+00  8.5063982058304651e+60 -6.0319254394503508e+60 0.0000000000000000e+00  1.8253521766662772e+61 -1.1920349318671683e+59 0.0000000000000000e+00  1.8413005040507035e+61 -1.1254139150432091e+60 0.0000000000000000e+00  1.2671118537953408e+61 -1.4693715039628537e+60 0.0000000000000000e+00  1.7865379803020505e+61 -4.7999100264365280e+57 0.0000000000000000e+00  1.8504446128781693e+61 -5.9354791168512576e+59 0.0000000000000000e+00  1.2917752695675357e+61 -1.2356510561314522e+60 0.0000000000000000e+00  1.3884744267813488e+61 -2.4587413000748213e+59 0.0000000000000000e+00  1.7921439263567013e+61 -5.2520120170722562e+58 0.0000000000000000e+00  1.7876265429769403e+61 -1.3322531791549619e+58 0.0000000000000000e+00  1.7862095737907095e+61 -2.1378728300246272e+57 0.0000000000000000e+00  1.4324096129682347e+61 -2.8046114985343464e+60 0.0000000000000000e+00  1.6960738002304973e+61 -1.1402998943503310e+59 0.0000000000000000e+00  1.6827507418017946e+61 -7.0188851052131417e+59 0.0000000000000000e+00  1.6945967184039568e+61 -5.0496005321344606e+59 0.0000000000000000e+00  1.6270431292403702e+61 -9.7599241066876189e+59 0.0000000000000000e+00  1.7231198374543144e+61 -5.8623880606216994e+59 0.0000000000000000e+00  1.8735539077765621e+61 -1.7855185082770940e+60 0.0000000000000000e+00  1.8610152722444255e+61 -1.7302084437672785e+60 0.0000000000000000e+00  1.7840597296708808e+61 -4.3302224326594463e+57 0.0000000000000000e+00  8.6372411698280393e+60 -3.5703967532170070e+61 0.0000000000000000e+00  5.3522262625176804e+61 -1.7213254763958004e+61 0.0000000000000000e+00  1.7856087666302774e+61 -5.3773888914354098e+56 0.0000000000000000e+00  2.1258553177147054e+61 -7.3070917626212520e+59 0.0000000000000000e+00  1.7473626875005923e+61 -8.8666525725643914e+58 0.0000000000000000e+00  1.7208930292353771e+61 -6.2172893229892932e+58 0.0000000000000000e+00  1.1582001580321441e+61 -2.0165591508639766e+59 0.0000000000000000e+00  1.1487663941833243e+61 -2.8822187959906974e+59 0.0000000000000000e+00  1.7860503882235537e+61 -5.2603458233410629e+55 0.0000000000000000e+00  1.7613489903326760e+61 -4.9992606791267730e+58 0.0000000000000000e+00  1.7983754106221289e+61 -4.6365293757741489e+59 0.0000000000000000e+00  1.2521492875030460e+61 -1.5103040607132908e+60 0.0000000000000000e+00  1.4085646946986027e+61 -1.3525452865415158e+60 0.0000000000000000e+00  8.1389194702437396e+60 -1.0817151399437281e+61 0.0000000000000000e+00  1.1306787106836509e+61 -1.1615941711860038e+60 0.0000000000000000e+00  1.6683908462162643e+61 -1.0483247131279266e+60 0.0000000000000000e+00  1.7495769333814010e+61 -1.5099273341684615e+59 0.0000000000000000e+00  2.2734319497213905e+61 -6.9658250940659756e+60 0.0000000000000000e+00  8.8898627963089003e+60 -6.1699676617114062e+60 0.0000000000000000e+00  1.7895570461085025e+61 -6.5050401431453306e+59 0.0000000000000000e+00  9.0409620033212048e+60 -5.1597891330376477e+60 0.0000000000000000e+00  1.7574713523777542e+61 -3.2816011404390640e+59 0.0000000000000000e+00  1.4460846906480353e+61 -6.0627263884089107e+60 0.0000000000000000e+00  1.1604515452565117e+61 -6.5893284801331172e+60 0.0000000000000000e+00  1.8140619033389873e+61 -5.1193558069453574e+58 0.0000000000000000e+00  1.8000672346718915e+61 -1.1880586929170417e+59 0.0000000000000000e+00  1.5226858835089057e+61 -7.3533453362999375e+60 0.0000000000000000e+00  1.7860027069255429e+61 -6.8311494863821163e+56 0.0000000000000000e+00  1.1692263638354686e+61 -7.4338898796171104e+60 0.0000000000000000e+00  9.7541093352313778e+60 -1.3845319972512360e+61 0.0000000000000000e+00  7.6820745948402360e+60 -1.0303228340313341e+61 0.0000000000000000e+00  1.8346538498270532e+61 -1.5387085209415902e+59 0.0000000000000000e+00  1.2873970902285792e+61 -1.3222127270019504e+60 0.0000000000000000e+00  1.5742534773185779e+61 -3.2273482915405863e+59 0.0000000000000000e+00  1.6464285912562190e+61 -2.0129886446789950e+60 0.0000000000000000e+00  1.2133578118917403e+61 -1.9333303883251679e+60 0.0000000000000000e+00  1.7357878613890607e+61 -1.3703124143081128e+59 0.0000000000000000e+00  1.7824310224202523e+61 -2.3871286535598590e+59 0.0000000000000000e+00  1.7425689971253027e+61 -6.6705898405363786e+59 0.0000000000000000e+00  1.1074527605274624e+61 -1.0111496479871825e+60 0.0000000000000000e+00  1.2175486318264291e+61 -6.0678190220753402e+59 0.0000000000000000e+00  1.7916547414555413e+61 -2.2917756949805910e+60 0.0000000000000000e+00  1.2037614109945201e+61 -6.6746840951239492e+59 0.0000000000000000e+00  1.1089356580359023e+61 -6.7243860958182130e+58 0.0000000000000000e+00  1.7861033977928884e+61 -1.1583314045341528e+57 0.0000000000000000e+00  1.7598380271703183e+61 -1.2395428873788768e+59 0.0000000000000000e+00  5.3786435821629115e+60 -1.3643646637497260e+60 0.0000000000000000e+00  8.0309547790243170e+60 -1.0403227332670550e+61 0.0000000000000000e+00  1.1557290043874518e+61 -5.3609389391622822e+59 0.0000000000000000e+00  1.4486536785611284e+61 -8.1899904024177188e+59 0.0000000000000000e+00  6.7805219857694261e+60 -9.0325334011500800e+60 0.0000000000000000e+00  2.2284362695658414e+61 -1.9275918632539647e+60 0.0000000000000000e+00  1.7138125280247315e+61 -3.4565863410561057e+59 0.0000000000000000e+00  1.7469804672274672e+61 -2.4633654140996158e+59 0.0000000000000000e+00  1.7860702984577283e+61 -1.0741618250897371e+56 0.0000000000000000e+00  1.7819654548678552e+61 -2.9012220435546386e+58 0.0000000000000000e+00  1.7681798310219421e+61 -1.3390968110118983e+59 0.0000000000000000e+00  1.5804406018405215e+61 -7.2104398187864895e+59 0.0000000000000000e+00  1.7934691444057961e+61 -9.9247530475581455e+59 0.0000000000000000e+00  1.5458057504785358e+61 -1.2295657986710503e+60 0.0000000000000000e+00  1.6520644440135403e+61 -3.5934876564968338e+60 0.0000000000000000e+00  1.7184361793460170e+61 -1.2252546614449986e+60 0.0000000000000000e+00  1.6770072289069685e+61 -2.0517492209100087e+60 0.0000000000000000e+00  1.2075900236646195e+61 -4.7234178792184091e+60 0.0000000000000000e+00  2.1418965888417994e+61 -1.6627022084570510e+60 0.0000000000000000e+00  2.0218251424621020e+61 -4.2863833182985952e+60 0.0000000000000000e+00  1.7862382806951488e+61 -4.5815477213508420e+56 0.0000000000000000e+00  1.7880976346491873e+61 -7.4538765452812728e+58 0.0000000000000000e+00  1.7859902444948729e+61 -2.3339881714740696e+58 0.0000000000000000e+00  1.7895476885216184e+61 -2.6459717806724653e+58 0.0000000000000000e+00  9.0628138234534491e+60 -4.2370035383783543e+60 0.0000000000000000e+00  7.0263820275482391e+60 -6.1595918676170021e+60 0.0000000000000000e+00  1.0375051646035460e+61 -1.2765264465187719e+61 0.0000000000000000e+00  1.0431625667225084e+61 -1.9249598330617889e+60 0.0000000000000000e+00  1.4024696121597310e+61 -1.8429545742148422e+60 0.0000000000000000e+00  9.4006015462481704e+60 -3.1757755821149515e+60 0.0000000000000000e+00  1.7859641025840528e+61 -2.7958757045647723e+56 0.0000000000000000e+00  1.7858350804628381e+61 -1.0866640539110300e+57 0.0000000000000000e+00  1.1967772901411212e+61 -7.3904531484169927e+59 0.0000000000000000e+00  1.7933583308819157e+61 -1.1703035789213926e+58 0.0000000000000000e+00  1.8681884240607843e+61 -2.0644981661825311e+59 0.0000000000000000e+00  1.7867109862927373e+61 -9.8228303221366320e+56 0.0000000000000000e+00  1.7711558951208275e+61 -3.8968060198867913e+58 0.0000000000000000e+00  1.7883626529238917e+61 -3.7702819195635955e+57 0.0000000000000000e+00  1.7431666419772613e+61 -3.9537052305757082e+58 0.0000000000000000e+00  1.7801292712343197e+61 -4.2088397607030814e+58 0.0000000000000000e+00  1.2953790514484043e+61 -1.1248280939077048e+61 0.0000000000000000e+00  1.1543353020291416e+61 -3.1543017764874079e+60 0.0000000000000000e+00  1.6520704157005931e+61 -3.4721932149132421e+59 0.0000000000000000e+00  1.2838371898096591e+61 -5.0186961421614937e+60 0.0000000000000000e+00  7.4475858036416966e+60 -4.5393589193111217e+60 0.0000000000000000e+00  7.9783392778910312e+60 -9.3419634459271546e+60 0.0000000000000000e+00  6.8965842055250092e+60 -7.3233915134558782e+60 0.0000000000000000e+00  1.7501348196571559e+61 -2.4342678739452705e+59 0.0000000000000000e+00  1.5641053418633219e+61 -6.2999988248537155e+59 0.0000000000000000e+00  1.6849905216811895e+61 -4.1055335222840231e+59 0.0000000000000000e+00  1.7853273571075959e+61 -1.6002934356584021e+58 0.0000000000000000e+00  1.9833083685215780e+61 -5.7986553444271661e+60 0.0000000000000000e+00  6.5947140037677086e+60 -9.8809268504122090e+60 0.0000000000000000e+00  1.7546421302543860e+61 -2.2800427683787905e+59 0.0000000000000000e+00  1.7531388317164902e+61 -4.2816724078072214e+59 0.0000000000000000e+00  1.7851972237968852e+61 -3.8636569363550458e+58 0.0000000000000000e+00  1.7133053200972780e+61 -2.6197912407330686e+59 0.0000000000000000e+00  1.7432803673065041e+61 -2.5554604437017595e+59 0.0000000000000000e+00  1.4864552125623490e+61 -3.2233541657861223e+60 0.0000000000000000e+00  1.1926790789299982e+61 -1.5283209000229055e+60 0.0000000000000000e+00  1.3283537970333455e+61 -8.4368137736463214e+59 0.0000000000000000e+00  1.8437156570095497e+61 -4.4414093081701950e+59 0.0000000000000000e+00  1.7846979310910556e+61 -9.0362085945141323e+57 0.0000000000000000e+00  1.4056794026822495e+61 -4.6548752400424939e+60 0.0000000000000000e+00  7.5545995312064619e+60 -6.4100173478650441e+60 0.0000000000000000e+00  1.0430846492727727e+61 -1.8843549503086670e+60 0.0000000000000000e+00  1.6735313369435025e+61 -1.0813798703010448e+61 0.0000000000000000e+00  1.0292665575941942e+61 -1.0211800249250574e+61 0.0000000000000000e+00  1.8444419014068322e+61 -5.1851491922389612e+60 0.0000000000000000e+00  1.7859224814971454e+61 -2.8231940842819935e+57 0.0000000000000000e+00  1.9753719152227746e+61 -1.0675124345666932e+60 0.0000000000000000e+00  1.7854501835038213e+61 -3.4251999969546046e+57 0.0000000000000000e+00  3.0499754863546585e+61 -8.8954356427046356e+60 0.0000000000000000e+00  3.0500628587142523e+61 -4.2350157885129986e+61 0.0000000000000000e+00  1.0553249783995876e+61 -9.9091767005190882e+60 0.0000000000000000e+00  1.2361389178835670e+61 -2.2139899960640061e+60 0.0000000000000000e+00  1.5304772119217529e+61 -3.1338119638299342e+60 0.0000000000000000e+00  1.8218184049469783e+61 -1.2123857821210171e+60 0.0000000000000000e+00  1.5011787281359332e+61 -9.4385837603900238e+59 0.0000000000000000e+00  1.8158613001064053e+61 -1.5306575195281328e+59 0.0000000000000000e+00  1.7858124772325816e+61 -2.1484749854682215e+59 0.0000000000000000e+00  1.800518564376210