<?xml version="1.0"?>
<VTKFile type="UnstructuredGrid"  version="0.1"  >
<UnstructuredGrid>
<Piece  NumberOfPoints="1981" NumberOfCells="3668">
<Points>
<DataArray  type="Float64"  NumberOfComponents="3"  format="ascii">-2 0.5 0  -2 0 0  -0.5 0 0  -0.4968561049466213 -0.05598223805165387 0  -0.4874639560909119 -0.1112604669781569 0  -0.4719416651541838 -0.1651395309775835 0  -0.4504844339512096 -0.216941869558779 0  -0.4233620996141421 -0.2660160382576682 0  -0.3909157412340148 -0.3117449009293669 0  -0.3535533905932738 -0.3535533905932737 0  -0.3117449009293669 -0.3909157412340148 0  -0.2660160382576683 -0.4233620996141421 0  -0.2169418695587791 -0.4504844339512095 0  -0.1651395309775836 -0.4719416651541837 0  -0.1112604669781573 -0.4874639560909118 0  -0.05598223805165402 -0.4968561049466213 0  -9.184850993605148e-17 -0.5 0  2 -0.5 0  2 0 0  0.5 0 0  0.4968561049466213 0.05598223805165393 0  0.4874639560909118 0.1112604669781572 0  0.4719416651541838 0.1651395309775835 0  0.4504844339512096 0.2169418695587791 0  0.4233620996141421 0.2660160382576683 0  0.3909157412340149 0.3117449009293667 0  0.3535533905932738 0.3535533905932737 0  0.3117449009293668 0.3909157412340149 0  0.2660160382576683 0.4233620996141421 0  0.2169418695587791 0.4504844339512096 0  0.1651395309775837 0.4719416651541837 0  0.1112604669781572 0.4874639560909118 0  0.05598223805165384 0.4968561049466213 0  3.061616997868383e-17 0.5 0  0.1398708344106534 0.05418624992807294 0  0.15 0 0  0.1398708344106534 -0.05418624992807295 0  0.1108513375830988 -0.1010543465469837 0  0.06686075336648065 -0.1342744937032594 0  0.01384025391949536 -0.1493601264442552 0  -0.04104944851081246 -0.1442738464759228 0  -0.09039519545688858 -0.1197025840920358 0  -0.1275325703594421 -0.07896482443160337 0  -0.1474459649525853 -0.02756242767248552 0  -0.1474459649525853 0.02756242767248555 0  -0.1275325703594421 0.07896482443160341 0  -0.09039519545688844 0.1197025840920359 0  -0.04104944851081243 0.1442738464759228 0  0.0138402539194953 0.1493601264442552 0  0.06686075336648074 0.1342744937032593 0  0.1108513375830989 0.1010543465469836 0  -1 0.5 0  1 -0.5 0  -1.25 0 0  -0.5 0.5 0  1.25 0 0  0.4999999999999999 -0.5 0  -1.5 0.5 0  1.5 -0.5 0  -0.875 0 0  0.875 0 0  -1.625 0 0  1.625 0 0  0.6875 -0.2500000000000001 0  -0.6875 0.25 0  -2 0.25 0  1.75 -0.5 0  0.2499999999999999 -0.5 0  -0.3583969912126916 0.25 0  0.3749999999999999 -0.25 0  -1.0625 0.21875 0  1.0625 -0.21875 0  -1.75 0.5 0  -1.25 0.5 0  -1.375 0.25 0  1.4375 -0.21875 0  2 -0.25 0  1.25 -0.5 0  1.7375 -0.2375 0  -1.7375 0.2375 0  0.75 -0.5 0  -0.75 0.5 0  -0.25 0.5 0  -0.1570377317087672 0.3153742794659282 0  0.1249999999999999 -0.3338777090152827 0  -0.8826650943396226 0.3263561320754717 0  0.8826650943396227 -0.3263561320754717 0  1.25 -0.1897321428571428 0  1.4375 0 0  -1.4375 0 0  1.0625 0 0  -1.0625 0 0  -0.6875 0 0  0.6875 0 0  1.8125 0 0  -1.8125 0 0  0.3263011380546194 -0.06940056902730968 0  -1.554017857142857 0.1790178571428572 0  0.08847100915780901 0.3109433440851622 0  -0.2412983234264066 -0.2156373655531345 0  -1.625 0.3744047619047619 0  1.625 -0.3744047619047619 0  0.2743272717766799 0.1698562554772697 0  -0.3279338175957848 0.06764246763930631 0  -1.863068181818182 0.3630681818181818 0  2 -0.375 0  1.875 -0.5 0  -0.05442366733490933 -0.3203147637646457 0  1.321986607142857 -0.3448660714285714 0  1.125 -0.5 0  -1.209821428571429 0.3236607142857143 0  -0.5229484956063458 0.1781011282952406 0  0.9067445847815293 -0.1625224987586892 0  -0.8335714777578845 0.1642411083184135 0  -1.237063437253354 0.1627182813733228 0  -0.4947697009489606 0.3378596801347012 0  0.53125 -0.171875 0  0.5156249999999999 -0.3359375 0  -2 0.125 0  1.873225308641975 -0.1497685185185185 0  0.2341337966231563 -0.1911191776024666 0  -0.625 0.5 0  1.587453076345555 -0.2288757784711196 0  1.8125 -0.3654761904761905 0  -0.3326862624810256 -0.08869875963335262 0  -0.375 0.5 0  1.174048204529175 -0.319244854540162 0  -1.067618031042359 0.3674567846760797 0  -0.96875 0.109375 0  1.481463366596639 -0.3565498074229692 0  1.023503306098383 -0.3576535124663073 0  -0.2265388519390893 0.1866542405407749 0  0.625 -0.5 0  -1.852445652173913 0.1432065217391304 0  -1.375 0.5 0  -1.479101577239454 0.3541992113802732 0  0.2708871299591885 -0.3541935649795943 0  1.520204106978579 -0.109375 0  0.78125 -0.1026731411563172 0  -0.3125 0.3785994323952442 0  0.3749999999999999 -0.5 0  1.141568346088435 -0.109375 0  1.358431653911565 -0.109375 0  1.668712727161379 -0.1246887081867154 0  -1.673050595238095 0.1226339285714286 0  -1.34375 0 0  -1.431523109243698 0.1313182773109244 0  -0.7546231943577876 0.3660317014105531 0  -0.6233296454587935 0.3645528204344609 0  0.7546231943577878 -0.3660317014105531 0  0.6537002726710706 -0.125 0  -0.6441338591766993 0.125 0  1.375 -0.5 0  -2 0.375 0  -1.875 0.5 0  1.625 -0.5 0  -1.625 0.5 0  0.875 -0.5 0  -0.875 0.5 0  0.1249999999999999 -0.5 0  -0.125 0.5 0  2 -0.125 0  -1.125 0.5 0  -1.354082022940739 0.375 0  -0.03500388138134332 0.2732363193989585 0  0.3955099577726473 -0.3752808566622692 0  0.3596026196703111 0.0631070919012526 0  -0.0625 0.394061918116807 0  0.6342080192637126 -0.3582597885274255 0  -1.123666900137815 0.109375 0  -1.744588744588745 0.3803841991341991 0  0.2210084381421171 0.2925777566973838 0  0.8072251313743133 -0.2315819627814412 0  -0.1814335426834733 -0.3282792760620681 0  -0.9356634513979559 0.2218154628239019 0  0.4183753556420685 -0.1414382112841371 0  -0.1238894550978499 -0.2292394949250368 0  0.96875 0 0  1.013652292192466 -0.1102204462032291 0  -0.4393328341626322 0.09834605222123384 0  1.882206434331873 -0.2686982850037661 0  0.1426699461850768 0.2146575767791519 0  -1.886304127069339 0.251758104550396 0  0.2495743011762567 0.06264742837969955 0  -0.78125 0 0  0.04042933102838756 -0.2590839715717854 0  -1.53125 0 0  -0.5823692714154002 0.2663576540687616 0  -0.2594008044921133 0.2871583817002197 0  -0.9375 0.4157678007976423 0  0.9696186653311423 -0.2675997292662616 0  -0.7942971416386473 0.2646257048857303 0  0.06249999999999992 -0.4169388545076413 0  0.1874999999999999 -0.4169388545076413 0  -1.562839467699977 0.2864000626355251 0  -0.1875 0.4157529178973974 0  -0.1223698320396133 0.2179970721626365 0  1.770639498024741 -0.1399156735731578 0  0.9367002721196375 -0.4157324987180338 0  -1.90625 0 0  -0.2298618769854927 -0.08904896555277285 0  0.1397131066802196 -0.232031643549068 0  -0.4375 0.420861596936145 0  -0.3483554784186823 -0.1925292675214375 0  0.59375 0 0  -1.327632151430252 0.1057660692693074 0  -0.9830051201906395 0.3115204496273563 0  1.90625 0 0  1.236354269160391 -0.3993990952861421 0  -1.1875 0.4214935578661845 0  0.5625 -0.4247705455161483 0  -0.7349377422908023 0.1635199768201956 0  -1.583328550170068 0.08705835459183674 0  -1.640104497493491 0.2259991665335075 0  -1.467109316827997 0.2210671404637805 0  0.5896070530325394 -0.2690578560650788 0  0.3266472067106532 -0.167734762534917 0  -0.59375 0 0  -0.546875 0.08448914438556519 0  1.71875 0 0  1.156078290691277 -0.2031315651260504 0  1.337704613095238 -0.2433035714285714 0  1.236312294597949 -0.09486607142857142 0  0.1642123379155914 0.3701207892454864 0  0.2345507206108115 -0.04384512844718241 0  -0.4048861533022036 -0.02273791864794379 0  0.03798857341016919 0.3979165301900267 0  -0.4006523628802168 0.334179001454817 0  -0.1135990210174155 -0.393340785880617 0  1.906775738056482 -0.3598876272511091 0  1.720393990929705 -0.4044642857142857 0  -1.71875 0 0  1.15625 0 0  0.78125 0 0  1.53125 0 0  -0.96875 0 0  1.34375 0 0  -1.15625 0 0  1.142828909845958 -0.4078056758504979 0  0.40697192225457 -0.01923608979840619 0  -1.767708120728825 0.08966855818957545 0  -0.6882384924227143 0.4308047125515967 0  -0.3636785153797087 0.1553944795036722 0  -0.2291274285977749 0.08616080495998404 0  -0.281012338688557 -0.01202669255906096 0  0.3108677056378212 0.2586754570559801 0  -1.151751953043632 0.196872287087452 0  -0.5625 0.4330368698813529 0  0.6875 -0.4328910527173583 0  1.405021000845949 -0.3057191080886871 0  0.546875 -0.08025568181818182 0  0.3713523302229579 0.1599284134935842 0  -1.12196127795563 0.2911449911382941 0  -1.276991293863022 0.2522534749828799 0  1.255195006158927 -0.2798057638555942 0  -0.8388532729558951 0.4114132763440825 0  0.8388532729558953 -0.4114132763440825 0  -0.4557763550657601 0.2486174768248819 0  0.2049883534781638 -0.2934473685517857 0  0.3226059585583683 -0.4273378498573185 0  -1.426982449282418 0.4270508114904024 0  1.397702183984896 -0.4056170514003312 0  0.05467855045156804 0.2285245978493705 0  -0.272823163096586 -0.3046204408381326 0  -0.02656096412551515 -0.4126877256833236 0  -1.807235369718798 0.2933328120993839 0  0.1906985117418444 0.1399478964461678 0  -1.688085622354259 0.3115694793217502 0  1.659329587961023 -0.2879395206246994 0  -1.5625 0.437202380952381 0  1.546313524296827 -0.4210926184041992 0  -1.813279560389256 0.4363923695021056 0  -1.926524548924358 0.4265245489243581 0  -0.1751061200004134 -0.1578066000831913 0  0.2891187728554643 -0.268298186700636 0  0.4721679687499999 -0.2490234375 0  0.7276683718449491 -0.1720688736051095 0  0.4744973194747868 -0.4152356216385488 0  0.9322020604693165 -0.07914563824612769 0  -1.275602471792197 0.4154857864535745 0  -0.828125 0.07552171441918698 0  1.3125 -0.5 0  -1.931646474339171 0.178059096704675 0  -0.7167268019830385 0.08016211756451477 0  1.060414578698922 -0.4368616551407768 0  -1.6875 0.5 0  1.9375 -0.5 0  1.739833210773432 -0.3220974693894793 0  -2 0.3125 0  -1.207440692409131 0.07848980221212992 0  -0.04055821595704934 -0.2377097412335854 0  0.1922531441870086 -0.1190381071624572 0  1.509237778147088 -0.2717758217431455 0  0.8901922386429052 -0.2437760747352658 0  -1.498530569603453 0.07867879855510211 0  0.9849923856958628 -0.1870513965806273 0  1.515605916195201 -0.1906351698786736 0  1.439317880445072 -0.08458133750179306 0  1.932491348856277 -0.2050969650933771 0  1.828075655121533 -0.08087981225769847 0  1
[...]
<PointData  Vectors="f_39"> 
<DataArray  type="Float64"  Name="f_39"  NumberOfComponents="3" format="ascii">4.5036690800901914e+02 -2.2068488886770429e+03 0.0000000000000000e+00  9.8075662150054256e+01 -1.0963840378896953e+02 0.0000000000000000e+00  2.8585774679469823e+03 -1.4590953381976469e+03 0.0000000000000000e+00  1.7196107614716875e+03 -2.1540294354834882e+03 0.0000000000000000e+00  1.3389109142553684e+03 -1.8394019819262944e+03 0.0000000000000000e+00  1.1056320679568432e+03 -1.5522533296387494e+03 0.0000000000000000e+00  1.0497481108681384e+03 -1.3144361749708651e+03 0.0000000000000000e+00  1.1022431471142834e+03 -1.1832440956946264e+03 0.0000000000000000e+00  1.1271123454936787e+03 -1.0578004916008445e+03 0.0000000000000000e+00  1.1701936832094614e+03 -9.7445180771955620e+02 0.0000000000000000e+00  1.2633073095803879e+03 -7.9306706096959283e+02 0.0000000000000000e+00  1.2857457258077902e+03 -7.3518632250951214e+02 0.0000000000000000e+00  1.3374393287403725e+03 -6.3694770615004302e+02 0.0000000000000000e+00  1.3845819416257789e+03 -5.4375849392405712e+02 0.0000000000000000e+00  1.4259627938225728e+03 -4.7311088172224515e+02 0.0000000000000000e+00  1.5209374063040391e+03 -2.9952355920868001e+02 0.0000000000000000e+00  1.6388026134676015e+03 -2.8140586831875385e+02 0.0000000000000000e+00  2.8346865967274098e+03 -2.2306029203707653e-01 0.0000000000000000e+00  2.8423740739377695e+03 -5.7484302641225615e-01 0.0000000000000000e+00  2.3679622204555517e+03 -2.1977618025636621e+03 0.0000000000000000e+00  1.5117531637884440e+03 -2.0919323642214208e+03 0.0000000000000000e+00  1.1385892507516428e+03 -1.8106644259229884e+03 0.0000000000000000e+00  1.0602224403085806e+03 -1.6108962577558277e+03 0.0000000000000000e+00  1.0066960365476062e+03 -1.3623402911881794e+03 0.0000000000000000e+00  1.0332065974213842e+03 -1.1883421323461243e+03 0.0000000000000000e+00  1.1394436693695197e+03 -1.0455722609919205e+03 0.0000000000000000e+00  1.1683017234481581e+03 -9.5207017935424756e+02 0.0000000000000000e+00  1.2240145103180555e+03 -8.4698640451951405e+02 0.0000000000000000e+00  1.2088947343743564e+03 -7.9051767444461689e+02 0.0000000000000000e+00  1.3342076167790681e+03 -6.2751378154443842e+02 0.0000000000000000e+00  1.3486063570472538e+03 -5.4182704263494088e+02 0.0000000000000000e+00  1.4292112181836344e+03 -4.3355671008475895e+02 0.0000000000000000e+00  1.4788846808169158e+03 -3.9628447575617662e+02 0.0000000000000000e+00  1.6116296222009760e+03 -2.8645647007178377e+02 0.0000000000000000e+00  1.5791915395421902e+03 -1.5838148614990719e+03 0.0000000000000000e+00  1.3158854576935487e+03 -1.3390387269360128e+03 0.0000000000000000e+00  1.2016188106203583e+03 -7.0641344620369409e+02 0.0000000000000000e+00  1.4388686622437644e+03 -2.8432524500508015e+02 0.0000000000000000e+00  1.9735464409977967e+03 -7.0272259443460342e+01 0.0000000000000000e+00  2.4173763895978927e+03 -1.8337589537520162e+02 0.0000000000000000e+00  2.3012855575846147e+03 -1.0641967441826803e+03 0.0000000000000000e+00  2.0277704846243912e+03 -1.4507426824322949e+03 0.0000000000000000e+00  1.6090605079754598e+03 -1.5511213434447054e+03 0.0000000000000000e+00  1.1192505305860668e+03 -1.3386886130875723e+03 0.0000000000000000e+00  8.7013691043326776e+02 -9.4954518275872113e+02 0.0000000000000000e+00  1.1977776846073921e+03 -3.0688612566653080e+02 0.0000000000000000e+00  1.5525332207824304e+03 -4.1591555824006512e+01 0.0000000000000000e+00  2.0732515071668936e+03 4.1326294722074947e-01 0.0000000000000000e+00  2.4379697045748335e+03 -6.5444518608538476e+02 0.0000000000000000e+00  2.3263523862609427e+03 -8.9866146654432248e+02 0.0000000000000000e+00  1.9063052976062668e+03 -1.5738622896531201e+03 0.0000000000000000e+00  2.5934325679582062e+03 -1.9283280174454001e+02 0.0000000000000000e+00  2.7785769518091679e+03 -5.3025264530494262e+01 0.0000000000000000e+00  2.3808638343952571e+03 -2.2064631653920961e+02 0.0000000000000000e+00  2.2248362983865518e+03 -2.1374011159479565e+02 0.0000000000000000e+00  2.8611394199409151e+03 -2.6603644579979683e+01 0.0000000000000000e+00  2.3950037616144527e+03 -1.7339674657816104e+02 0.0000000000000000e+00  2.8436214606944695e+03 -6.0721380096891869e+02 0.0000000000000000e+00  2.8260067043260947e+03 -1.1170387284793099e+01 0.0000000000000000e+00  2.5814039148553343e+03 -1.8034765148195578e+02 0.0000000000000000e+00  2.9454685044014577e+03 -1.0184349792954167e+02 0.0000000000000000e+00  1.8230471732764443e+03 -4.6044608932111606e+02 0.0000000000000000e+00  2.8464485355338634e+03 -7.5923589164681502e+00 0.0000000000000000e+00  2.7616060052754942e+03 -3.0540376756109083e+02 0.0000000000000000e+00  2.5063843506087605e+03 -3.2360763407946956e+02 0.0000000000000000e+00  1.4270482965217010e+02 -9.7532663976027493e+02 0.0000000000000000e+00  2.8303777343514735e+03 -3.2643105214347159e+00 0.0000000000000000e+00  2.0107431089524357e+03 -1.5975404847319811e+02 0.0000000000000000e+00  2.0254719687865904e+03 -5.1922887961254867e+02 0.0000000000000000e+00  2.2015460300132527e+03 -5.7429823762667206e+02 0.0000000000000000e+00  2.5377931905916562e+03 -2.4120192661706039e+02 0.0000000000000000e+00  2.8452941088376569e+03 -6.7111665231960544e+01 0.0000000000000000e+00  4.1834550429087894e+03 -1.0376500043724684e+03 0.0000000000000000e+00  2.7215685747133502e+03 -2.7570466392887704e+02 0.0000000000000000e+00  2.5171773497450740e+03 -4.4389675882363565e+02 0.0000000000000000e+00  2.8400412689730360e+03 -1.8749848755795195e+01 0.0000000000000000e+00  2.8384905063794531e+03 -6.2339518870590793e-01 0.0000000000000000e+00  2.8132471756244568e+03 -2.4075902336668374e+01 0.0000000000000000e+00  2.8383484088571859e+03 -6.2405295773501930e+00 0.0000000000000000e+00  2.0300179981284707e+03 -1.4240675180057585e+03 0.0000000000000000e+00  2.6698285237361674e+03 -9.2830093935623324e+01 0.0000000000000000e+00  2.4647771487687251e+03 -1.8343139840877694e+02 0.0000000000000000e+00  1.9220060934947965e+03 -1.9446350990408035e+02 0.0000000000000000e+00  1.8307246526073682e+03 -3.2811129869540213e+02 0.0000000000000000e+00  1.8898917934495487e+03 -3.5733124393047041e+02 0.0000000000000000e+00  2.5295374138375828e+03 -2.1898189984854542e+02 0.0000000000000000e+00  2.7894892448591268e+03 -1.2052806772088537e+02 0.0000000000000000e+00  2.8433538304229346e+03 -3.4988720118123126e+01 0.0000000000000000e+00  2.8535640013879006e+03 -1.5703818598452154e+01 0.0000000000000000e+00  2.1968233286149452e+03 -3.0447484637551298e+02 0.0000000000000000e+00  2.8929345470325720e+03 -4.2339924607816322e+01 0.0000000000000000e+00  2.4942446554025505e+03 -1.7229485683369145e+02 0.0000000000000000e+00  2.7380623103847379e+03 -2.6596009932955309e+02 0.0000000000000000e+00  3.1509254964216111e+03 -2.4690883099756249e+02 0.0000000000000000e+00  2.8426178424147179e+03 -2.4018232790629428e+00 0.0000000000000000e+00  1.1593316190684232e+03 -6.4158710759012524e+02 0.0000000000000000e+00  1.8440981567312665e+03 -1.1060833932605678e+03 0.0000000000000000e+00  2.2488436653806757e+03 -6.7868808483833220e+02 0.0000000000000000e+00  1.6975985955861520e+03 -6.6845745581515268e+02 0.0000000000000000e+00  1.4840356208044243e+03 -1.1263804132736429e+03 0.0000000000000000e+00  2.8071663258894350e+03 -1.0371697780806217e+03 0.0000000000000000e+00  2.8330540726672348e+03 -9.2558634444547803e+00 0.0000000000000000e+00  1.4790451921960660e+03 -1.2585451248487020e+03 0.0000000000000000e+00  1.7511296710485540e+03 -9.9968487545380674e+02 0.0000000000000000e+00  2.5141833606856489e+03 -3.3536368508156243e+03 0.0000000000000000e+00  2.8352819316715345e+03 -5.7699896403494699e-01 0.0000000000000000e+00  2.8335523582917708e+03 -1.5106145314249300e+00 0.0000000000000000e+00  1.7775287879173927e+03 -6.0263749939088871e+02 0.0000000000000000e+00  2.8293144052258426e+03 -2.6663382244608787e+01 0.0000000000000000e+00  2.7992478352315825e+03 -3.6834280562243499e+01 0.0000000000000000e+00  2.5761368808395173e+03 -3.0483171993739620e+02 0.0000000000000000e+00  2.4338800035838854e+03 -5.8724227863586020e+02 0.0000000000000000e+00  2.8744924818925765e+03 -1.3090140625362503e+02 0.0000000000000000e+00  2.5727593837759969e+03 -2.4481790642133669e+02 0.0000000000000000e+00  2.4742315126144358e+03 -3.0374353092200465e+02 0.0000000000000000e+00  2.2549947100266581e+03 -3.5663055622943926e+02 0.0000000000000000e+00  2.7262873687731108e+03 -6.6031487895670296e+02 0.0000000000000000e+00  2.4562613378755227e+03 -3.5753219581132396e+02 0.0000000000000000e+00  1.3016447618515951e+02 -4.1582015343394391e+02 0.0000000000000000e+00  2.8400632866637529e+03 -2.9360730549236083e+00 0.0000000000000000e+00  1.8538352240556567e+03 -5.4052069452026819e+02 0.0000000000000000e+00  2.3572177091350309e+03 -1.9196287403508791e+02 0.0000000000000000e+00  2.8380531724378211e+03 -1.1653959523634644e+01 0.0000000000000000e+00  2.8352636271962469e+03 -4.4466001810825944e+00 0.0000000000000000e+00  1.4518838906888100e+03 -1.3683462772223581e+03 0.0000000000000000e+00  2.0689047941799713e+03 -2.0525548877371642e+02 0.0000000000000000e+00  2.8259997763188208e+03 -4.3352592844412229e+01 0.0000000000000000e+00  2.5745359020923875e+03 -2.3917613624439312e+02 0.0000000000000000e+00  2.5433905859948363e+03 -2.0728127486148875e+02 0.0000000000000000e+00  2.8319964135700156e+03 -1.5847094886408444e+01 0.0000000000000000e+00  2.8081690591737956e+03 -6.6470697246290726e+01 0.0000000000000000e+00  1.6931887628608149e+03 -4.8033133506966766e+02 0.0000000000000000e+00  2.5598171389845402e+03 -1.3804488616135993e+02 0.0000000000000000e+00  1.0663347967794516e+03 -1.3224123203875286e+03 0.0000000000000000e+00  2.8147260008640715e+03 -3.9342045640742703e+02 0.0000000000000000e+00  2.6798556572114439e+03 -6.3652552772374531e+02 0.0000000000000000e+00  2.0573922985354156e+03 -3.7061614219803675e+02 0.0000000000000000e+00  2.8449395491305336e+03 -1.3510614412058622e+01 0.0000000000000000e+00  2.9515347051567105e+03 -1.9827638555294880e+02 0.0000000000000000e+00  1.9837955089864824e+03 -3.1756028032239345e+02 0.0000000000000000e+00  2.2123651885910031e+03 -1.7793312455578561e+02 0.0000000000000000e+00  2.8617429330228488e+03 -4.5374094910507914e+01 0.0000000000000000e+00  2.8485642816774512e+03 -2.2280370806723784e+01 0.0000000000000000e+00  2.8421229253294850e+03 -7.8947752506390509e+00 0.0000000000000000e+00  1.8600187192499300e+03 -8.6474993473685811e+02 0.0000000000000000e+00  2.3023521805121509e+03 -2.7228103579932451e+02 0.0000000000000000e+00  2.3219641233443890e+03 -4.4106602958109056e+02 0.0000000000000000e+00  2.4728260040020755e+03 -2.3001099262607096e+02 0.0000000000000000e+00  2.3828711243819303e+03 -2.8816639942296160e+02 0.0000000000000000e+00  2.6994575298403302e+03 -1.7175729048565964e+02 0.0000000000000000e+00  2.9608551744472556e+03 -4.0284874818841161e+02 0.0000000000000000e+00  2.6578599782277438e+03 -4.0731389169307084e+02 0.0000000000000000e+00  2.8223161636308855e+03 -1.7856696696657853e+01 0.0000000000000000e+00  3.8836790370428434e+02 -1.7586200290767513e+03 0.0000000000000000e+00  -1.6820967282883883e+00 -5.7157563445456708e+03 0.0000000000000000e+00  2.8286088824644085e+03 -7.7249298032715776e+00 0.0000000000000000e+00  3.2537490480354822e+03 -8.5610251254482773e+02 0.0000000000000000e+00  2.7339297113326506e+03 -7.4825702826614304e+01 0.0000000000000000e+00  2.5218649439516175e+03 -1.7379949709337814e+02 0.0000000000000000e+00  1.8269256280376974e+03 -1.6566307967289629e+02 0.0000000000000000e+00  1.7604608576479143e+03 -2.1105997875390912e+02 0.0000000000000000e+00  2.8400440857156559e+03 -5.0260473185008570e-01 0.0000000000000000e+00  2.6129425261666106e+03 -2.3213805541869129e+02 0.0000000000000000e+00  2.6581322267000987e+03 -4.2943815849519177e+02 0.0000000000000000e+00  1.8755235107201047e+03 -3.9522361874398871e+02 0.0000000000000000e+00  2.2561599859054177e+03 -3.2994582050732612e+02 0.0000000000000000e+00  1.5736809746918975e+03 -1.4944295185519629e+03 0.0000000000000000e+00  1.7500824932772905e+03 -3.3011219926689739e+02 0.0000000000000000e+00  2.6247572555752699e+03 -2.5184414778627320e+02 0.0000000000000000e+00  2.4948746043970796e+03 -2.2809386196887269e+02 0.0000000000000000e+00  3.0759021000915072e+03 -1.7703774226197877e+03 0.0000000000000000e+00  1.4757634300008610e+03 -9.1358631902229217e+02 0.0000000000000000e+00  2.8339878458150793e+03 -1.9010586624039971e+02 0.0000000000000000e+00  1.5055282917643203e+03 -8.0464526917383523e+02 0.0000000000000000e+00  2.5460034418293985e+03 -2.3061468037954975e+02 0.0000000000000000e+00  2.3334046305483093e+03 -9.5271922488946564e+02 0.0000000000000000e+00  1.7780183787522169e+03 -9.5839905406683079e+02 0.0000000000000000e+00  2.9284402736179859e+03 -7.0133037808590558e+01 0.0000000000000000e+00  2.8802898242097285e+03 -7.5163286472151086e+01 0.0000000000000000e+00  2.2756838423908903e+03 -9.8891903734681296e+02 0.0000000000000000e+00  2.8376197184538014e+03 -2.9282211024445823e+00 0.0000000000000000e+00  1.8124774257425529e+03 -1.0012720627914607e+03 0.0000000000000000e+00  1.1743665419812535e+03 -2.2837648119336495e+03 0.0000000000000000e+00  1.5151691058202027e+03 -1.3582177549277039e+03 0.0000000000000000e+00  2.6531637567938201e+03 -1.9499146432063415e+02 0.0000000000000000e+00  1.9678949671400701e+03 -4.2567932389429552e+02 0.0000000000000000e+00  2.0503321546781517e+03 -4.0576853146134874e+02 0.0000000000000000e+00  2.4038391252382721e+03 -4.1344393945259924e+02 0.0000000000000000e+00  1.8919925571345004e+03 -4.1100967092956199e+02 0.0000000000000000e+00  2.5501216114868562e+03 -1.9951522841643975e+02 0.0000000000000000e+00  2.8262571497070935e+03 -9.9851656711207127e+01 0.0000000000000000e+00  2.5319483837479052e+03 -2.5901731759653268e+02 0.0000000000000000e+00  1.7758111167889522e+03 -3.1875508623162955e+02 0.0000000000000000e+00  1.9555882752842474e+03 -2.4770173832513436e+02 0.0000000000000000e+00  2.4963058964749821e+03 -8.3028901080828768e+02 0.0000000000000000e+00  1.8566484389065522e+03 -2.6245236316330920e+02 0.0000000000000000e+00  1.7700821869757092e+03 -2.5919416459729302e+02 0.0000000000000000e+00  2.8408342958890212e+03 -4.9996311612848503e+00 0.0000000000000000e+00  2.7694728147945780e+03 -7.2827850853186504e+01 0.0000000000000000e+00  6.9546608286349169e+02 -6.4980684115815120e+02 0.0000000000000000e+00  1.4419020607466859e+03 -1.3375028159024050e+03 0.0000000000000000e+00  1.8742053026105314e+03 -3.4832814401573637e+02 0.0000000000000000e+00  2.1700342684260609e+03 -2.6447211130444276e+02 0.0000000000000000e+00  1.3017831518249918e+03 -1.2727144271871532e+03 0.0000000000000000e+00  3.4827847089013626e+03 -4.7456496978212999e+02 0.0000000000000000e+00  2.3767272104331860e+03 -3.3034800123912362e+02 0.0000000000000000e+00  2.5472265453785667e+03 -2.2574360548220199e+02 0.0000000000000000e+00  2.8431351203839095e+03 -1.4109563818716446e+00 0.0000000000000000e+00  2.8194893010680858e+03 -3.3013673786695222e+01 0.0000000000000000e+00  2.6214487591113657e+03 -2.7235110872514639e+02 0.0000000000000000e+00  2.4886403215383375e+03 -2.1554975676321865e+02 0.0000000000000000e+00  2.5814652229392568e+03 -3.0519575692132889e+02 0.0000000000000000e+00  2.0346012482521344e+03 -5.9219349764700326e+02 0.0000000000000000e+00  2.1928273187779860e+03 -1.0085973962429099e+03 0.0000000000000000e+00  2.4046195824224565e+03 -5.8627593921745574e+02 0.0000000000000000e+00  2.6495096807339064e+03 -3.9761388924532628e+02 0.0000000000000000e+00  2.0280424781750887e+03 -7.9023575856440300e+02 0.0000000000000000e+00  2.9198165419418592e+03 -4.8589146380247172e+02 0.0000000000000000e+00  2.7282710014703089e+03 -7.0196186018364551e+02 0.0000000000000000e+00  2.8451483812880360e+03 -6.1385952675190865e+00 0.0000000000000000e+00  2.8440056302765829e+03 -4.9114936278950339e+01 0.0000000000000000e+00  2.8381817977635073e+03 -2.6871555524735101e+01 0.0000000000000000e+00  2.8551484791048761e+03 -3.3085272876869666e+01 0.0000000000000000e+00  1.4900729340193814e+03 -7.0545709770601025e+02 0.0000000000000000e+00  1.4876462881582761e+03 -9.4555679429065526e+02 0.0000000000000000e+00  1.7777401702523819e+03 -1.5670684380810067e+03 0.0000000000000000e+00  1.6389833690946580e+03 -4.2240092478465670e+02 0.0000000000000000e+00  2.1206247221704034e+03 -3.8667545329519373e+02 0.0000000000000000e+00  1.5400895492352547e+03 -5.7589585749706589e+02 0.0000000000000000e+00  2.8358948983155055e+03 -2.2104125854527750e+00 0.0000000000000000e+00  2.8334806526068251e+03 -6.0678784315976761e+00 0.0000000000000000e+00  1.4996438881936735e+03 -5.8327347795140747e+02 0.0000000000000000e+00  2.8773787158938867e+03 -2.8672180631621504e+01 0.0000000000000000e+00  3.0301739435339259e+03 -1.4829533422519000e+02 0.0000000000000000e+00  2.8488194249039138e+03 -1.0548729966824144e+01 0.0000000000000000e+00  2.5393827028940977e+03 -1.7331600224088214e+02 0.0000000000000000e+00  2.8562159953730556e+03 -2.0468815600001658e+01 0.0000000000000000e+00  2.4283363142324247e+03 -1.9040763731874057e+02 0.0000000000000000e+00  2.8126227779138608e+03 -4.0888310418725801e+01 0.0000000000000000e+00  2.0848051153925931e+03 -1.5435800461110928e+03 0.0000000000000000e+00  1.4608792749331562e+03 -9.1686171713643364e+02 0.0000000000000000e+00  2.4165685680110873e+03 -2.0487247804780941e+02 0.0000000000000000e+00  1.9994486402300340e+03 -7.4520028605797495e+02 0.0000000000000000e+00  1.4403108013481688e+03 -7.2361062971082481e+02 0.0000000000000000e+00  1.4855888180823661e+03 -1.2346025057256493e+03 0.0000000000000000e+00  1.2856819869196825e+03 -1.0881976719649917e+03 0.0000000000000000e+00  2.5135529841708626e+03 -2.6714627522519697e+02 0.0000000000000000e+00  2.2990554879581446e+03 -2.4029185209312249e+02 0.0000000000000000e+00  2.6378469605687860e+03 -1.5577661932869376e+02 0.0000000000000000e+00  2.8333736167901880e+03 -2.1735195452804152e+01 0.0000000000000000e+00  3.0472593531918042e+03 -9.4549959352447900e+02 0.0000000000000000e+00  1.3088255430053957e+03 -1.4010497646300560e+03 0.0000000000000000e+00  2.5563019749240607e+03 -2.6256061822581216e+02 0.0000000000000000e+00  2.5219095032874716e+03 -3.5805225190238599e+02 0.0000000000000000e+00  2.8344258745417110e+03 -3.4799212663666999e+01 0.0000000000000000e+00  2.5100464420873432e+03 -2.0149778726441167e+02 0.0000000000000000e+00  2.7399094529856793e+03 -1.1057583240428650e+02 0.0000000000000000e+00  2.2194841092633019e+03 -5.4547072022581926e+02 0.0000000000000000e+00  1.9592147630491127e+03 -3.9796773273260385e+02 0.0000000000000000e+00  2.1361706978392649e+03 -2.6807707028324228e+02 0.0000000000000000e+00  2.7660309805591378e+03 -4.9976252571565811e+02 0.0000000000000000e+00  2.8279527379543042e+03 -1.9618801471534788e+01 0.0000000000000000e+00  2.0020699615637402e+03 -7.0988892594979723e+02 0.0000000000000000e+00  1.3188384870356360e+03 -9.6416969716216568e+02 0.0000000000000000e+00  1.6768831572883030e+03 -4.3168939035247990e+02 0.0000000000000000e+00  2.1240005850955545e+03 -2.0867910412864408e+03 0.0000000000000000e+00  1.6986068724726304e+03 -1.3026081310682441e+03 0.0000000000000000e+00  2.4927453244353887e+03 -1.3263075224566924e+03 0.0000000000000000e+00  2.8362921788736394e+03 -8.5870627086176032e+00 0.0000000000000000e+00  2.9136045019579587e+03 -7.4040104454459697e+02 0.0000000000000000e+00  2.8304708335239111e+03 -1.1645072461309514e+01 0.0000000000000000e+00  3.9615586171327145e+03 -2.5069390528316771e+03 0.0000000000000000e+00  2.7186485474732081e+03 -5.3432229925240417e+03 0.0000000000000000e+00  1.6627192785634081e+03 -1.3071574254588133e+03 0.0000000000000000e+00  2.0241513728490370e+03 -4.7691531693058215e+02 0.0000000000000000e+00  2.4275095393234601e+03 -5.6335282621204158e+02 0.0000000000000000e+00  2.8731563169379692e+03 -2.8778642123563964e+02 0.0000000000000000e+00  2.3744576580138573e+03 -2.5794282573958515e+02 0.0000000000000000e+00  2.9084316908950295e+03 -9.8017005998926265e+01 0.0000000000000000e+00  2.6640117380801394e+03 -3.3292738837586683e+02 0.0000000000000000e+00  2.6010615256