<?xml version="1.0"?>
<VTKFile type="UnstructuredGrid"  version="0.1"  >
<UnstructuredGrid>
<Piece  NumberOfPoints="1981" NumberOfCells="3668">
<Points>
<DataArray  type="Float64"  NumberOfComponents="3"  format="ascii">-2 0.5 0  -2 0 0  -0.5 0 0  -0.4968561049466213 -0.05598223805165387 0  -0.4874639560909119 -0.1112604669781569 0  -0.4719416651541838 -0.1651395309775835 0  -0.4504844339512096 -0.216941869558779 0  -0.4233620996141421 -0.2660160382576682 0  -0.3909157412340148 -0.3117449009293669 0  -0.3535533905932738 -0.3535533905932737 0  -0.3117449009293669 -0.3909157412340148 0  -0.2660160382576683 -0.4233620996141421 0  -0.2169418695587791 -0.4504844339512095 0  -0.1651395309775836 -0.4719416651541837 0  -0.1112604669781573 -0.4874639560909118 0  -0.05598223805165402 -0.4968561049466213 0  -9.184850993605148e-17 -0.5 0  2 -0.5 0  2 0 0  0.5 0 0  0.4968561049466213 0.05598223805165393 0  0.4874639560909118 0.1112604669781572 0  0.4719416651541838 0.1651395309775835 0  0.4504844339512096 0.2169418695587791 0  0.4233620996141421 0.2660160382576683 0  0.3909157412340149 0.3117449009293667 0  0.3535533905932738 0.3535533905932737 0  0.3117449009293668 0.3909157412340149 0  0.2660160382576683 0.4233620996141421 0  0.2169418695587791 0.4504844339512096 0  0.1651395309775837 0.4719416651541837 0  0.1112604669781572 0.4874639560909118 0  0.05598223805165384 0.4968561049466213 0  3.061616997868383e-17 0.5 0  0.1398708344106534 0.05418624992807294 0  0.15 0 0  0.1398708344106534 -0.05418624992807295 0  0.1108513375830988 -0.1010543465469837 0  0.06686075336648065 -0.1342744937032594 0  0.01384025391949536 -0.1493601264442552 0  -0.04104944851081246 -0.1442738464759228 0  -0.09039519545688858 -0.1197025840920358 0  -0.1275325703594421 -0.07896482443160337 0  -0.1474459649525853 -0.02756242767248552 0  -0.1474459649525853 0.02756242767248555 0  -0.1275325703594421 0.07896482443160341 0  -0.09039519545688844 0.1197025840920359 0  -0.04104944851081243 0.1442738464759228 0  0.0138402539194953 0.1493601264442552 0  0.06686075336648074 0.1342744937032593 0  0.1108513375830989 0.1010543465469836 0  -1 0.5 0  1 -0.5 0  -1.25 0 0  -0.5 0.5 0  1.25 0 0  0.4999999999999999 -0.5 0  -1.5 0.5 0  1.5 -0.5 0  -0.875 0 0  0.875 0 0  -1.625 0 0  1.625 0 0  0.6875 -0.2500000000000001 0  -0.6875 0.25 0  -2 0.25 0  1.75 -0.5 0  0.2499999999999999 -0.5 0  -0.3583969912126916 0.25 0  0.3749999999999999 -0.25 0  -1.0625 0.21875 0  1.0625 -0.21875 0  -1.75 0.5 0  -1.25 0.5 0  -1.375 0.25 0  1.4375 -0.21875 0  2 -0.25 0  1.25 -0.5 0  1.7375 -0.2375 0  -1.7375 0.2375 0  0.75 -0.5 0  -0.75 0.5 0  -0.25 0.5 0  -0.1570377317087672 0.3153742794659282 0  0.1249999999999999 -0.3338777090152827 0  -0.8826650943396226 0.3263561320754717 0  0.8826650943396227 -0.3263561320754717 0  1.25 -0.1897321428571428 0  1.4375 0 0  -1.4375 0 0  1.0625 0 0  -1.0625 0 0  -0.6875 0 0  0.6875 0 0  1.8125 0 0  -1.8125 0 0  0.3263011380546194 -0.06940056902730968 0  -1.554017857142857 0.1790178571428572 0  0.08847100915780901 0.3109433440851622 0  -0.2412983234264066 -0.2156373655531345 0  -1.625 0.3744047619047619 0  1.625 -0.3744047619047619 0  0.2743272717766799 0.1698562554772697 0  -0.3279338175957848 0.06764246763930631 0  -1.863068181818182 0.3630681818181818 0  2 -0.375 0  1.875 -0.5 0  -0.05442366733490933 -0.3203147637646457 0  1.321986607142857 -0.3448660714285714 0  1.125 -0.5 0  -1.209821428571429 0.3236607142857143 0  -0.5229484956063458 0.1781011282952406 0  0.9067445847815293 -0.1625224987586892 0  -0.8335714777578845 0.1642411083184135 0  -1.237063437253354 0.1627182813733228 0  -0.4947697009489606 0.3378596801347012 0  0.53125 -0.171875 0  0.5156249999999999 -0.3359375 0  -2 0.125 0  1.873225308641975 -0.1497685185185185 0  0.2341337966231563 -0.1911191776024666 0  -0.625 0.5 0  1.587453076345555 -0.2288757784711196 0  1.8125 -0.3654761904761905 0  -0.3326862624810256 -0.08869875963335262 0  -0.375 0.5 0  1.174048204529175 -0.319244854540162 0  -1.067618031042359 0.3674567846760797 0  -0.96875 0.109375 0  1.481463366596639 -0.3565498074229692 0  1.023503306098383 -0.3576535124663073 0  -0.2265388519390893 0.1866542405407749 0  0.625 -0.5 0  -1.852445652173913 0.1432065217391304 0  -1.375 0.5 0  -1.479101577239454 0.3541992113802732 0  0.2708871299591885 -0.3541935649795943 0  1.520204106978579 -0.109375 0  0.78125 -0.1026731411563172 0  -0.3125 0.3785994323952442 0  0.3749999999999999 -0.5 0  1.141568346088435 -0.109375 0  1.358431653911565 -0.109375 0  1.668712727161379 -0.1246887081867154 0  -1.673050595238095 0.1226339285714286 0  -1.34375 0 0  -1.431523109243698 0.1313182773109244 0  -0.7546231943577876 0.3660317014105531 0  -0.6233296454587935 0.3645528204344609 0  0.7546231943577878 -0.3660317014105531 0  0.6537002726710706 -0.125 0  -0.6441338591766993 0.125 0  1.375 -0.5 0  -2 0.375 0  -1.875 0.5 0  1.625 -0.5 0  -1.625 0.5 0  0.875 -0.5 0  -0.875 0.5 0  0.1249999999999999 -0.5 0  -0.125 0.5 0  2 -0.125 0  -1.125 0.5 0  -1.354082022940739 0.375 0  -0.03500388138134332 0.2732363193989585 0  0.3955099577726473 -0.3752808566622692 0  0.3596026196703111 0.0631070919012526 0  -0.0625 0.394061918116807 0  0.6342080192637126 -0.3582597885274255 0  -1.123666900137815 0.109375 0  -1.744588744588745 0.3803841991341991 0  0.2210084381421171 0.2925777566973838 0  0.8072251313743133 -0.2315819627814412 0  -0.1814335426834733 -0.3282792760620681 0  -0.9356634513979559 0.2218154628239019 0  0.4183753556420685 -0.1414382112841371 0  -0.1238894550978499 -0.2292394949250368 0  0.96875 0 0  1.013652292192466 -0.1102204462032291 0  -0.4393328341626322 0.09834605222123384 0  1.882206434331873 -0.2686982850037661 0  0.1426699461850768 0.2146575767791519 0  -1.886304127069339 0.251758104550396 0  0.2495743011762567 0.06264742837969955 0  -0.78125 0 0  0.04042933102838756 -0.2590839715717854 0  -1.53125 0 0  -0.5823692714154002 0.2663576540687616 0  -0.2594008044921133 0.2871583817002197 0  -0.9375 0.4157678007976423 0  0.9696186653311423 -0.2675997292662616 0  -0.7942971416386473 0.2646257048857303 0  0.06249999999999992 -0.4169388545076413 0  0.1874999999999999 -0.4169388545076413 0  -1.562839467699977 0.2864000626355251 0  -0.1875 0.4157529178973974 0  -0.1223698320396133 0.2179970721626365 0  1.770639498024741 -0.1399156735731578 0  0.9367002721196375 -0.4157324987180338 0  -1.90625 0 0  -0.2298618769854927 -0.08904896555277285 0  0.1397131066802196 -0.232031643549068 0  -0.4375 0.420861596936145 0  -0.3483554784186823 -0.1925292675214375 0  0.59375 0 0  -1.327632151430252 0.1057660692693074 0  -0.9830051201906395 0.3115204496273563 0  1.90625 0 0  1.236354269160391 -0.3993990952861421 0  -1.1875 0.4214935578661845 0  0.5625 -0.4247705455161483 0  -0.7349377422908023 0.1635199768201956 0  -1.583328550170068 0.08705835459183674 0  -1.640104497493491 0.2259991665335075 0  -1.467109316827997 0.2210671404637805 0  0.5896070530325394 -0.2690578560650788 0  0.3266472067106532 -0.167734762534917 0  -0.59375 0 0  -0.546875 0.08448914438556519 0  1.71875 0 0  1.156078290691277 -0.2031315651260504 0  1.337704613095238 -0.2433035714285714 0  1.236312294597949 -0.09486607142857142 0  0.1642123379155914 0.3701207892454864 0  0.2345507206108115 -0.04384512844718241 0  -0.4048861533022036 -0.02273791864794379 0  0.03798857341016919 0.3979165301900267 0  -0.4006523628802168 0.334179001454817 0  -0.1135990210174155 -0.393340785880617 0  1.906775738056482 -0.3598876272511091 0  1.720393990929705 -0.4044642857142857 0  -1.71875 0 0  1.15625 0 0  0.78125 0 0  1.53125 0 0  -0.96875 0 0  1.34375 0 0  -1.15625 0 0  1.142828909845958 -0.4078056758504979 0  0.40697192225457 -0.01923608979840619 0  -1.767708120728825 0.08966855818957545 0  -0.6882384924227143 0.4308047125515967 0  -0.3636785153797087 0.1553944795036722 0  -0.2291274285977749 0.08616080495998404 0  -0.281012338688557 -0.01202669255906096 0  0.3108677056378212 0.2586754570559801 0  -1.151751953043632 0.196872287087452 0  -0.5625 0.4330368698813529 0  0.6875 -0.4328910527173583 0  1.405021000845949 -0.3057191080886871 0  0.546875 -0.08025568181818182 0  0.3713523302229579 0.1599284134935842 0  -1.12196127795563 0.2911449911382941 0  -1.276991293863022 0.2522534749828799 0  1.255195006158927 -0.2798057638555942 0  -0.8388532729558951 0.4114132763440825 0  0.8388532729558953 -0.4114132763440825 0  -0.4557763550657601 0.2486174768248819 0  0.2049883534781638 -0.2934473685517857 0  0.3226059585583683 -0.4273378498573185 0  -1.426982449282418 0.4270508114904024 0  1.397702183984896 -0.4056170514003312 0  0.05467855045156804 0.2285245978493705 0  -0.272823163096586 -0.3046204408381326 0  -0.02656096412551515 -0.4126877256833236 0  -1.807235369718798 0.2933328120993839 0  0.1906985117418444 0.1399478964461678 0  -1.688085622354259 0.3115694793217502 0  1.659329587961023 -0.2879395206246994 0  -1.5625 0.437202380952381 0  1.546313524296827 -0.4210926184041992 0  -1.813279560389256 0.4363923695021056 0  -1.926524548924358 0.4265245489243581 0  -0.1751061200004134 -0.1578066000831913 0  0.2891187728554643 -0.268298186700636 0  0.4721679687499999 -0.2490234375 0  0.7276683718449491 -0.1720688736051095 0  0.4744973194747868 -0.4152356216385488 0  0.9322020604693165 -0.07914563824612769 0  -1.275602471792197 0.4154857864535745 0  -0.828125 0.07552171441918698 0  1.3125 -0.5 0  -1.931646474339171 0.178059096704675 0  -0.7167268019830385 0.08016211756451477 0  1.060414578698922 -0.4368616551407768 0  -1.6875 0.5 0  1.9375 -0.5 0  1.739833210773432 -0.3220974693894793 0  -2 0.3125 0  -1.207440692409131 0.07848980221212992 0  -0.04055821595704934 -0.2377097412335854 0  0.1922531441870086 -0.1190381071624572 0  1.509237778147088 -0.2717758217431455 0  0.8901922386429052 -0.2437760747352658 0  -1.498530569603453 0.07867879855510211 0  0.9849923856958628 -0.1870513965806273 0  1.515605916195201 -0.1906351698786736 0  1.439317880445072 -0.08458133750179306 0  1.932491348856277 -0.2050969650933771 0  1.828075655121533 -0.08087981225769847 0  1
[...]
<PointData  Vectors="f_39"> 
<DataArray  type="Float64"  Name="f_39"  NumberOfComponents="3" format="ascii">2.4988084204697298e+01 -1.0327930028808478e+01 0.0000000000000000e+00  4.9326069214592477e-01 -1.4156859182496360e+00 0.0000000000000000e+00  9.9029370816220904e+01 -5.2875948608541528e+01 0.0000000000000000e+00  9.3110138805440727e+01 -5.3868811333300989e+01 0.0000000000000000e+00  9.0361745386729808e+01 -5.2109475602770459e+01 0.0000000000000000e+00  8.6659704529189980e+01 -4.9023324390492000e+01 0.0000000000000000e+00  8.5647462438760911e+01 -4.5893395758177981e+01 0.0000000000000000e+00  8.6216172457402394e+01 -4.2991425290550652e+01 0.0000000000000000e+00  8.6269551303398714e+01 -4.0806520794013416e+01 0.0000000000000000e+00  8.6991040663353829e+01 -3.9300270641027552e+01 0.0000000000000000e+00  8.8859535005213431e+01 -3.5944537154992005e+01 0.0000000000000000e+00  8.9301152265366881e+01 -3.4975786730199466e+01 0.0000000000000000e+00  9.0267370077050160e+01 -3.3369957321905595e+01 0.0000000000000000e+00  9.1152274960938200e+01 -3.1902501911374472e+01 0.0000000000000000e+00  9.1831945103149337e+01 -3.0737456635612759e+01 0.0000000000000000e+00  9.3623826672282931e+01 -2.8059862930808816e+01 0.0000000000000000e+00  9.5395745361664197e+01 -2.7628801367237941e+01 0.0000000000000000e+00  1.1966488965131013e+02 -1.0840520631424345e-03 0.0000000000000000e+00  1.2409738124871630e+02 -2.9045838632700205e-01 0.0000000000000000e+00  1.1503388928069580e+02 -5.2927785230554413e+01 0.0000000000000000e+00  1.0479290771908305e+02 -5.7868991971675428e+01 0.0000000000000000e+00  9.8628069951477087e+01 -5.4848001727303092e+01 0.0000000000000000e+00  9.5964342733577283e+01 -5.2358345929129285e+01 0.0000000000000000e+00  9.3553669594463244e+01 -4.9229016942318310e+01 0.0000000000000000e+00  9.2564396108372804e+01 -4.6132277173749173e+01 0.0000000000000000e+00  9.3422947211970168e+01 -4.3480042256907197e+01 0.0000000000000000e+00  9.3801846328230297e+01 -4.1987955966618152e+01 0.0000000000000000e+00  9.4376903722254582e+01 -4.0215757846418029e+01 0.0000000000000000e+00  9.4370544762290038e+01 -3.9169294051803980e+01 0.0000000000000000e+00  9.6142024658471726e+01 -3.6867951858391798e+01 0.0000000000000000e+00  9.6523660423896686e+01 -3.5699313195699737e+01 0.0000000000000000e+00  9.8008675530587084e+01 -3.4319487680032324e+01 0.0000000000000000e+00  9.8924773250968897e+01 -3.3651792509793324e+01 0.0000000000000000e+00  1.0153687383494957e+02 -3.2609103791808693e+01 0.0000000000000000e+00  9.9811548030278715e+01 -4.6226730665663375e+01 0.0000000000000000e+00  9.7661586383793448e+01 -4.3498437565407535e+01 0.0000000000000000e+00  9.5906565815406324e+01 -3.6956774798315635e+01 0.0000000000000000e+00  9.7193367016046821e+01 -3.2302149447436939e+01 0.0000000000000000e+00  1.0091676037851370e+02 -2.9122286191836697e+01 0.0000000000000000e+00  1.0447993974556475e+02 -3.0355207984233939e+01 0.0000000000000000e+00  1.0397510116918336e+02 -3.9510115425274982e+01 0.0000000000000000e+00  1.0073337967547425e+02 -4.4404601753016941e+01 0.0000000000000000e+00  9.6473878720171129e+01 -4.6570434845119998e+01 0.0000000000000000e+00  9.2080766900706536e+01 -4.5521353306800258e+01 0.0000000000000000e+00  9.0389743959618514e+01 -4.2015172852622605e+01 0.0000000000000000e+00  9.4643407088673243e+01 -3.6210906413473623e+01 0.0000000000000000e+00  9.8927106137019521e+01 -3.3368559142190897e+01 0.0000000000000000e+00  1.0391553935722226e+02 -3.2853388575895039e+01 0.0000000000000000e+00  1.0654523170224412e+02 -3.8451019446887379e+01 0.0000000000000000e+00  1.0588976746239032e+02 -4.0376782124647406e+01 0.0000000000000000e+00  1.0233633769871655e+02 -4.6304753743280266e+01 0.0000000000000000e+00  1.2365033651492745e+02 -7.3842120368617216e+01 0.0000000000000000e+00  1.1740822678654789e+02 -1.2972169992143481e+01 0.0000000000000000e+00  7.6432477080455072e+01 -8.9846058493187442e+01 0.0000000000000000e+00  1.1633320563764772e+02 -4.4719506038416966e+01 0.0000000000000000e+00  1.2474414183712378e+02 -9.0600153135155921e+00 0.0000000000000000e+00  1.0961053008647065e+02 -2.1316186480169090e+01 0.0000000000000000e+00  1.2916672856941182e+02 -1.4024454179080445e+02 0.0000000000000000e+00  1.1848764482447203e+02 -5.3090041124839171e+00 0.0000000000000000e+00  9.1447688594704630e+01 -6.0798973269175917e+01 0.0000000000000000e+00  1.2688757693114751e+02 -1.6164279189289651e+01 0.0000000000000000e+00  5.4400907984111086e+01 -1.3610709493382981e+02 0.0000000000000000e+00  1.2434327493506828e+02 -3.9357025125632541e+00 0.0000000000000000e+00  1.1955111458098710e+02 -2.2280315628323542e+01 0.0000000000000000e+00  1.0676997421344376e+02 -5.6003807360671686e+01 0.0000000000000000e+00  1.3815979969168033e+01 -4.4576298515505677e+00 0.0000000000000000e+00  1.1906508681259184e+02 -2.0166482267597177e+00 0.0000000000000000e+00  1.0278937093829434e+02 -2.3814534492570449e+01 0.0000000000000000e+00  1.0441985277609903e+02 -4.3504816643823560e+01 0.0000000000000000e+00  1.0887423346769704e+02 -3.0526600697268162e+01 0.0000000000000000e+00  1.0249220967225416e+02 -7.9967917211540467e+01 0.0000000000000000e+00  1.2207876773089049e+02 -1.2382861934507680e+01 0.0000000000000000e+00  1.3079979362680058e+02 -1.8042026468234036e+02 0.0000000000000000e+00  1.2897651787442518e+02 -9.5646941389434588e+01 0.0000000000000000e+00  9.9233318066369108e+01 -1.1123371545599365e+02 0.0000000000000000e+00  1.2219413999592226e+02 -6.4583218536314728e+00 0.0000000000000000e+00  1.2180365659391536e+02 -2.3646709158481721e-01 0.0000000000000000e+00  1.1811811270148903e+02 -8.8518740939188767e+00 0.0000000000000000e+00  1.2180848413425835e+02 -2.8544518624242068e+00 0.0000000000000000e+00  7.6333308895038655e+01 -1.7255734477950719e+02 0.0000000000000000e+00  1.1504808062289229e+02 -1.7040007969156079e+01 0.0000000000000000e+00  1.1875121389971821e+02 -5.9106564558651513e+01 0.0000000000000000e+00  1.0817735737452975e+02 -3.6054967075830170e+01 0.0000000000000000e+00  1.0374697779569888e+02 -3.7134341864949754e+01 0.0000000000000000e+00  1.0077333686822197e+02 -2.9179109305950028e+01 0.0000000000000000e+00  1.1153272625801038e+02 -6.7183272357751932e+01 0.0000000000000000e+00  1.1940895057744433e+02 -1.5802329553972429e+01 0.0000000000000000e+00  1.2229294857280560e+02 -9.2851743673118285e+00 0.0000000000000000e+00  1.2489849977915301e+02 -6.4798179859097012e+00 0.0000000000000000e+00  6.5834407849894916e+01 -1.1052536914189926e+02 0.0000000000000000e+00  1.2572616710843351e+02 -1.1487331063020603e+01 0.0000000000000000e+00  8.5049327134169900e+01 -7.3034434053228040e+01 0.0000000000000000e+00  9.7271076693631784e+01 -5.2410725237839287e+01 0.0000000000000000e+00  1.2962678006811200e+02 -2.2845857880485333e+01 0.0000000000000000e+00  1.2415662412039570e+02 -1.6151823201244910e+00 0.0000000000000000e+00  4.3263518476205022e+01 -1.5393580732910553e+02 0.0000000000000000e+00  1.0557976503546567e+02 -4.0532442405077916e+01 0.0000000000000000e+00  8.1855079719347728e+01 -1.3512572634117049e+02 0.0000000000000000e+00  1.0062692274972052e+02 -3.8102397326411676e+01 0.0000000000000000e+00  9.2647448212662894e+01 -4.1418062827095405e+01 0.0000000000000000e+00  1.1304578093877107e+02 -1.5979118538212452e+02 0.0000000000000000e+00  1.2017901037925610e+02 -4.1211271042656588e+00 0.0000000000000000e+00  9.8971461245279230e+01 -4.4964011199327231e+01 0.0000000000000000e+00  9.7675493205914364e+01 -4.5399801409794918e+01 0.0000000000000000e+00  8.7460342720088789e+01 -2.3712505654366061e+02 0.0000000000000000e+00  1.2055522672422583e+02 -2.7181684225422886e-01 0.0000000000000000e+00  1.1967602773142914e+02 -1.1412459451360295e+00 0.0000000000000000e+00  9.7305565832493841e+01 -3.3289913795219093e+01 0.0000000000000000e+00  1.2025992381172135e+02 -8.0761764466540171e+00 0.0000000000000000e+00  1.1778836710947486e+02 -1.0826586870930038e+01 0.0000000000000000e+00  1.1042879305331446e+02 -9.4096268791227459e+01 0.0000000000000000e+00  1.0410978810317772e+02 -4.9716961357484145e+01 0.0000000000000000e+00  1.2354795919045564e+02 -1.5945054146876334e+01 0.0000000000000000e+00  1.0093299691870544e+02 -6.2785888050117094e+01 0.0000000000000000e+00  9.3399984959256003e+01 -9.5978385206296409e+01 0.0000000000000000e+00  1.0985868760392970e+02 -4.7116085293590167e+01 0.0000000000000000e+00  1.1901710995455383e+02 -3.0332327656258983e+01 0.0000000000000000e+00  1.1237236825475834e+02 -2.4879502735575201e+01 0.0000000000000000e+00  7.5000906204909592e+00 -2.5942076550438937e+00 0.0000000000000000e+00  1.2287876479039804e+02 -1.3294183235568264e+00 0.0000000000000000e+00  1.0303873934262964e+02 -3.2696257409825122e+01 0.0000000000000000e+00  1.1817448342239837e+02 -5.2126934155462699e+01 0.0000000000000000e+00  1.2190059031782887e+02 -4.5676349245522037e+00 0.0000000000000000e+00  1.2047265136089040e+02 -1.8470747843208211e+00 0.0000000000000000e+00  9.2360035628141873e+01 -4.6484606298394581e+01 0.0000000000000000e+00  1.1228998556214415e+02 -3.9587707422847991e+01 0.0000000000000000e+00  1.2031455668832484e+02 -1.0411215622857942e+01 0.0000000000000000e+00  1.1369714523045408e+02 -8.0660805906227239e+01 0.0000000000000000e+00  9.4864436843659007e+01 -7.0586064226090357e+01 0.0000000000000000e+00  1.2022631680109208e+02 -5.9174500272928103e+00 0.0000000000000000e+00  1.1952708471848459e+02 -1.2754490542439381e+01 0.0000000000000000e+00  9.9938913836887309e+01 -3.9600124403262669e+01 0.0000000000000000e+00  1.1274940894174098e+02 -1.9414663243280202e+01 0.0000000000000000e+00  4.2923213781990775e+01 -1.7261214052473170e+02 0.0000000000000000e+00  1.3111037741462755e+02 -1.1282492898612638e+02 0.0000000000000000e+00  1.1471087239286597e+02 -1.3326464385038793e+02 0.0000000000000000e+00  1.0469160551455785e+02 -2.8009148923453736e+01 0.0000000000000000e+00  1.2335112060031528e+02 -5.3465039903915361e+00 0.0000000000000000e+00  1.2546525237070364e+02 -1.9332178127680020e+01 0.0000000000000000e+00  1.0713379841652869e+02 -3.9784750840941690e+01 0.0000000000000000e+00  1.0619745230997829e+02 -2.3123134882073796e+01 0.0000000000000000e+00  1.2386853003059758e+02 -1.0790085265076263e+01 0.0000000000000000e+00  1.2354745915169869e+02 -7.6795743535510157e+00 0.0000000000000000e+00  1.2305325163781107e+02 -3.6420865644956630e+00 0.0000000000000000e+00  6.5731584304089921e+01 -1.5179061408820596e+02 0.0000000000000000e+00  7.1757205492379541e+01 -1.0160882795640273e+02 0.0000000000000000e+00  8.0706614951502630e+01 -1.1747101107534014e+02 0.0000000000000000e+00  1.1303978962137764e+02 -5.9324568906398333e+01 0.0000000000000000e+00  1.1242082689380102e+02 -5.2595990071935567e+01 0.0000000000000000e+00  1.1699195674647852e+02 -1.8513688811474044e+01 0.0000000000000000e+00  1.2404568251103733e+02 -2.4881137709774681e+01 0.0000000000000000e+00  1.0190980436730284e+02 -5.3122415538467628e+01 0.0000000000000000e+00  1.1865869114331051e+02 -7.3524161954747305e+00 0.0000000000000000e+00  1.9959415706603568e+01 -6.7329414673698302e+00 0.0000000000000000e+00  1.1766978487991639e+02 -2.8112672317066568e+02 0.0000000000000000e+00  1.1866033412442755e+02 -3.8903414831991330e+00 0.0000000000000000e+00  1.3392859792017714e+02 -1.6341672651486678e+02 0.0000000000000000e+00  1.1632454475429772e+02 -1.4717488420735039e+01 0.0000000000000000e+00  1.1863328662002777e+02 -6.5140007769659022e+01 0.0000000000000000e+00  9.8977836302547615e+01 -2.4867440952374871e+01 0.0000000000000000e+00  1.0511561163703973e+02 -3.3613370294425216e+01 0.0000000000000000e+00  1.2304243395590984e+02 -2.7885853701629115e-01 0.0000000000000000e+00  1.2339345426339949e+02 -8.6790463094234212e+01 0.0000000000000000e+00  1.1782430818705326e+02 -1.1272287072295664e+02 0.0000000000000000e+00  1.0292917467707369e+02 -3.6269364756079426e+01 0.0000000000000000e+00  1.0825466393630866e+02 -2.5705299314430935e+01 0.0000000000000000e+00  1.0232889938847671e+02 -4.7728470860175754e+01 0.0000000000000000e+00  1.0291607641636287e+02 -3.4985974650910045e+01 0.0000000000000000e+00  1.1562982082525059e+02 -2.1431842350777561e+01 0.0000000000000000e+00  9.0043387690297067e+01 -8.1604732640503116e+01 0.0000000000000000e+00  1.1338754222196684e+02 -1.9259387927040038e+02 0.0000000000000000e+00  9.8000894785959062e+01 -4.0881979282962597e+01 0.0000000000000000e+00  1.2156753881378130e+02 -1.8344530598184633e+01 0.0000000000000000e+00  9.2798356933708547e+01 -3.6191706468342417e+01 0.0000000000000000e+00  1.0300025637537881e+02 -6.9118378521571358e+01 0.0000000000000000e+00  1.1259458135146467e+02 -3.6420097570815130e+01 0.0000000000000000e+00  9.7085161895110716e+01 -3.8538939160399202e+01 0.0000000000000000e+00  1.2666101270076440e+02 -1.3925249993301346e+01 0.0000000000000000e+00  1.2445981562054402e+02 -1.3160297514455245e+01 0.0000000000000000e+00  1.0073148847892834e+02 -4.8468591098820255e+01 0.0000000000000000e+00  1.2158553912221150e+02 -1.2939353733721120e+00 0.0000000000000000e+00  1.0163767494859029e+02 -4.1592704001434576e+01 0.0000000000000000e+00  4.7533392995469683e+01 -2.0310808956890000e+02 0.0000000000000000e+00  1.0042522857714648e+02 -4.4748458536896848e+01 0.0000000000000000e+00  9.4738351935934446e+01 -5.5924065603705394e+01 0.0000000000000000e+00  1.0069466938488981e+02 -3.1411402309843691e+01 0.0000000000000000e+00  6.0632890132349587e+01 -1.2628171914205950e+02 0.0000000000000000e+00  1.0761686125726325e+02 -5.0786577185425088e+01 0.0000000000000000e+00  1.0406031098762989e+02 -3.9960447666950053e+01 0.0000000000000000e+00  1.1736263910718191e+02 -7.0066144373846910e+01 0.0000000000000000e+00  1.2107506321843110e+02 -1.4345691582883077e+01 0.0000000000000000e+00  1.0668763360501099e+02 -6.1281897000230011e+01 0.0000000000000000e+00  9.7877355385534344e+01 -2.8277434695994646e+01 0.0000000000000000e+00  1.0172803400523141e+02 -2.6175100046690989e+01 0.0000000000000000e+00  9.9409722306338324e+01 -1.4421244302307483e+02 0.0000000000000000e+00  1.0588561396410115e+02 -3.5807042205568010e+01 0.0000000000000000e+00  1.0140041124238573e+02 -3.6075931900169728e+01 0.0000000000000000e+00  1.2308140622142926e+02 -2.4551346070692586e+00 0.0000000000000000e+00  1.1778784953055710e+02 -1.4059156842020894e+01 0.0000000000000000e+00  3.5248681995714705e+01 -1.5201356414064946e+02 0.0000000000000000e+00  9.3823599627846889e+01 -4.5279440132048535e+01 0.0000000000000000e+00  1.0116360357859782e+02 -3.0655925169764835e+01 0.0000000000000000e+00  1.1256134288746939e+02 -4.3245528652664341e+01 0.0000000000000000e+00  8.9720700893127614e+01 -4.4499132133412459e+01 0.0000000000000000e+00  1.3211305031623482e+02 -2.9124686706218995e+01 0.0000000000000000e+00  8.2134302145054193e+01 -1.0327420540370657e+02 0.0000000000000000e+00  1.0951225651884089e+02 -7.3355110281824551e+01 0.0000000000000000e+00  1.2400107435327924e+02 -7.7394557065075997e-01 0.0000000000000000e+00  1.1932903334612740e+02 -9.4736493436942713e+00 0.0000000000000000e+00  1.2008983517143697e+02 -9.1728951707339476e+01 0.0000000000000000e+00  1.1196869520274059e+02 -2.1625599846126100e+01 0.0000000000000000e+00  1.0275997684892185e+02 -5.7157023252225557e+01 0.0000000000000000e+00  6.6180910571684535e+01 -1.3614927159917974e+02 0.0000000000000000e+00  8.1031297206457666e+01 -1.5497477124712813e+02 0.0000000000000000e+00  9.0918937265046893e+01 -1.2707701797382050e+02 0.0000000000000000e+00  1.1681952272552422e+02 -2.4984445641710874e+01 0.0000000000000000e+00  1.0723279270201594e+02 -3.5055806980869491e+01 0.0000000000000000e+00  1.0133023057394212e+02 -4.9239115301923256e+01 0.0000000000000000e+00  1.0250287345419922e+02 -5.0558357236383110e+01 0.0000000000000000e+00  1.2426886505987014e+02 -3.0050373963156520e+00 0.0000000000000000e+00  1.2226767816807379e+02 -1.0827612373739512e+01 0.0000000000000000e+00  1.2159081151138305e+02 -7.9986830257670318e+00 0.0000000000000000e+00  1.2380234955955073e+02 -9.3380399880290508e+00 0.0000000000000000e+00  9.8111903299379122e+01 -3.8094413502295197e+01 0.0000000000000000e+00  1.0037165309808968e+02 -3.9293861313231972e+01 0.0000000000000000e+00  9.4997706660198361e+01 -5.0354468599719475e+01 0.0000000000000000e+00  1.0087489346976575e+02 -3.5212145350255987e+01 0.0000000000000000e+00  1.0798104859630689e+02 -4.2754161390736847e+01 0.0000000000000000e+00  9.3575519890439267e+01 -3.2528094203592715e+01 0.0000000000000000e+00  1.2070787416992076e+02 -8.6855845461727266e-01 0.0000000000000000e+00  1.1990736387605186e+02 -2.6015292089186359e+00 0.0000000000000000e+00  4.8975091084727794e+01 -1.4979662444064053e+02 0.0000000000000000e+00  1.2525812496840682e+02 -9.9437499590573797e+00 0.0000000000000000e+00  1.2844239618707735e+02 -1.8734014687219947e+01 0.0000000000000000e+00  1.2450457179361625e+02 -5.0469167215943873e+00 0.0000000000000000e+00  8.8241014288860256e+01 -6.7707988963139528e+01 0.0000000000000000e+00  1.2471218792512197e+02 -7.8089086418121942e+00 0.0000000000000000e+00  7.9664907907691784e+01 -8.0126860613152232e+01 0.0000000000000000e+00  1.1904129180011552e+02 -1.0578397833552668e+01 0.0000000000000000e+00  1.1112259134790995e+02 -4.6464717652381871e+01 0.0000000000000000e+00  5.2760562681679019e+01 -1.5844825948579523e+02 0.0000000000000000e+00  1.1625762343162206e+02 -5.5784535641274495e+01 0.0000000000000000e+00  1.0115285622163661e+02 -4.4843246537619606e+01 0.0000000000000000e+00  9.6001959994637858e+01 -4.1146427692979081e+01 0.0000000000000000e+00  9.4243675932981020e+01 -4.5530641634073987e+01 0.0000000000000000e+00  9.5669340120588728e+01 -4.3696021941125380e+01 0.0000000000000000e+00  9.7992567444842777e+01 -8.7871168647725753e+01 0.0000000000000000e+00  1.1475072308762971e+02 -4.9206017368662664e+01 0.0000000000000000e+00  1.1503117443597129e+02 -1.8768029048724060e+01 0.0000000000000000e+00  1.2072793063332095e+02 -7.2197046613292901e+00 0.0000000000000000e+00  1.2438653043237785e+02 -3.5549738472768084e+01 0.0000000000000000e+00  9.8186021917132166e+01 -4.7947822060126171e+01 0.0000000000000000e+00  1.0729394652063911e+02 -8.5464190548138916e+01 0.0000000000000000e+00  1.0158000215470942e+02 -1.0257342743486105e+02 0.0000000000000000e+00  1.2108726625250007e+02 -9.2043204622683401e+00 0.0000000000000000e+00  1.1566932440530289e+02 -6.2832933288159666e+01 0.0000000000000000e+00  1.1724378876294895e+02 -1.6031390611618448e+01 0.0000000000000000e+00  1.0530935390246917e+02 -4.6504886047919776e+01 0.0000000000000000e+00  1.0326298849688101e+02 -2.9525908262621595e+01 0.0000000000000000e+00  1.0538739578098077e+02 -2.5456783853337463e+01 0.0000000000000000e+00  1.2654855829645206e+02 -1.2439179464487762e+02 0.0000000000000000e+00  1.1941252032265145e+02 -7.0747828215243977e+00 0.0000000000000000e+00  1.0352413189496514e+02 -3.8878886544120171e+01 0.0000000000000000e+00  8.9863439489907364e+01 -3.8832869543742220e+01 0.0000000000000000e+00  9.6010388399228020e+01 -3.0201076766779657e+01 0.0000000000000000e+00  7.9141249250891676e+01 -1.9686079451670062e+02 0.0000000000000000e+00  1.0107888208293421e+02 -4.4421025463833104e+01 0.0000000000000000e+00  9.5845010086456369e+01 -1.7005840016712438e+02 0.0000000000000000e+00  1.2108678719054869e+02 -3.6208584234854468e+00 0.0000000000000000e+00  1.2611549654176333e+02 -1.4697478350699257e+02 0.0000000000000000e+00  1.1952186411657571e+02 -5.1115425609452307e+00 0.0000000000000000e+00  1.3545676969322471e+02 -2.2413067130290901e+02 0.0000000000000000e+00  9.0133330404992464e+01 -2.8213270971406052e+02 0.0000000000000000e+00  9.6057684455977963e+01 -4.3474701194165178e+01 0.0000000000000000e+00  1.0499927931627504e+02 -3.0075735188624883e+01 0.0000000000000000e+00  1.1290163306677579e+02 -2.9137604429452107e+01 0.0000000000000000e+00  1.2270014112870196e+02 -2.1803326005280038e+01 0.0000000000000000e+00  1.1008323576715820e+02 -2.3423055239737824e+01 0.0000000000000000e+00  1.2564481647750678e+02 -1.5121702616938020e+01 0.0000000000000000e+00  1.2164992087544512e+02 -1.0197217631198899e+02 0.0000000000000000e+00  9.6053393855