<?xml version="1.0"?>
<VTKFile type="UnstructuredGrid"  version="0.1"  >
<UnstructuredGrid>
<Piece  NumberOfPoints="1981" NumberOfCells="3668">
<Points>
<DataArray  type="Float64"  NumberOfComponents="3"  format="ascii">-2 0.5 0  -2 0 0  -0.5 0 0  -0.4968561049466213 -0.05598223805165387 0  -0.4874639560909119 -0.1112604669781569 0  -0.4719416651541838 -0.1651395309775835 0  -0.4504844339512096 -0.216941869558779 0  -0.4233620996141421 -0.2660160382576682 0  -0.3909157412340148 -0.3117449009293669 0  -0.3535533905932738 -0.3535533905932737 0  -0.3117449009293669 -0.3909157412340148 0  -0.2660160382576683 -0.4233620996141421 0  -0.2169418695587791 -0.4504844339512095 0  -0.1651395309775836 -0.4719416651541837 0  -0.1112604669781573 -0.4874639560909118 0  -0.05598223805165402 -0.4968561049466213 0  -9.184850993605148e-17 -0.5 0  2 -0.5 0  2 0 0  0.5 0 0  0.4968561049466213 0.05598223805165393 0  0.4874639560909118 0.1112604669781572 0  0.4719416651541838 0.1651395309775835 0  0.4504844339512096 0.2169418695587791 0  0.4233620996141421 0.2660160382576683 0  0.3909157412340149 0.3117449009293667 0  0.3535533905932738 0.3535533905932737 0  0.3117449009293668 0.3909157412340149 0  0.2660160382576683 0.4233620996141421 0  0.2169418695587791 0.4504844339512096 0  0.1651395309775837 0.4719416651541837 0  0.1112604669781572 0.4874639560909118 0  0.05598223805165384 0.4968561049466213 0  3.061616997868383e-17 0.5 0  0.1398708344106534 0.05418624992807294 0  0.15 0 0  0.1398708344106534 -0.05418624992807295 0  0.1108513375830988 -0.1010543465469837 0  0.06686075336648065 -0.1342744937032594 0  0.01384025391949536 -0.1493601264442552 0  -0.04104944851081246 -0.1442738464759228 0  -0.09039519545688858 -0.1197025840920358 0  -0.1275325703594421 -0.07896482443160337 0  -0.1474459649525853 -0.02756242767248552 0  -0.1474459649525853 0.02756242767248555 0  -0.1275325703594421 0.07896482443160341 0  -0.09039519545688844 0.1197025840920359 0  -0.04104944851081243 0.1442738464759228 0  0.0138402539194953 0.1493601264442552 0  0.06686075336648074 0.1342744937032593 0  0.1108513375830989 0.1010543465469836 0  -1 0.5 0  1 -0.5 0  -1.25 0 0  -0.5 0.5 0  1.25 0 0  0.4999999999999999 -0.5 0  -1.5 0.5 0  1.5 -0.5 0  -0.875 0 0  0.875 0 0  -1.625 0 0  1.625 0 0  0.6875 -0.2500000000000001 0  -0.6875 0.25 0  -2 0.25 0  1.75 -0.5 0  0.2499999999999999 -0.5 0  -0.3583969912126916 0.25 0  0.3749999999999999 -0.25 0  -1.0625 0.21875 0  1.0625 -0.21875 0  -1.75 0.5 0  -1.25 0.5 0  -1.375 0.25 0  1.4375 -0.21875 0  2 -0.25 0  1.25 -0.5 0  1.7375 -0.2375 0  -1.7375 0.2375 0  0.75 -0.5 0  -0.75 0.5 0  -0.25 0.5 0  -0.1570377317087672 0.3153742794659282 0  0.1249999999999999 -0.3338777090152827 0  -0.8826650943396226 0.3263561320754717 0  0.8826650943396227 -0.3263561320754717 0  1.25 -0.1897321428571428 0  1.4375 0 0  -1.4375 0 0  1.0625 0 0  -1.0625 0 0  -0.6875 0 0  0.6875 0 0  1.8125 0 0  -1.8125 0 0  0.3263011380546194 -0.06940056902730968 0  -1.554017857142857 0.1790178571428572 0  0.08847100915780901 0.3109433440851622 0  -0.2412983234264066 -0.2156373655531345 0  -1.625 0.3744047619047619 0  1.625 -0.3744047619047619 0  0.2743272717766799 0.1698562554772697 0  -0.3279338175957848 0.06764246763930631 0  -1.863068181818182 0.3630681818181818 0  2 -0.375 0  1.875 -0.5 0  -0.05442366733490933 -0.3203147637646457 0  1.321986607142857 -0.3448660714285714 0  1.125 -0.5 0  -1.209821428571429 0.3236607142857143 0  -0.5229484956063458 0.1781011282952406 0  0.9067445847815293 -0.1625224987586892 0  -0.8335714777578845 0.1642411083184135 0  -1.237063437253354 0.1627182813733228 0  -0.4947697009489606 0.3378596801347012 0  0.53125 -0.171875 0  0.5156249999999999 -0.3359375 0  -2 0.125 0  1.873225308641975 -0.1497685185185185 0  0.2341337966231563 -0.1911191776024666 0  -0.625 0.5 0  1.587453076345555 -0.2288757784711196 0  1.8125 -0.3654761904761905 0  -0.3326862624810256 -0.08869875963335262 0  -0.375 0.5 0  1.174048204529175 -0.319244854540162 0  -1.067618031042359 0.3674567846760797 0  -0.96875 0.109375 0  1.481463366596639 -0.3565498074229692 0  1.023503306098383 -0.3576535124663073 0  -0.2265388519390893 0.1866542405407749 0  0.625 -0.5 0  -1.852445652173913 0.1432065217391304 0  -1.375 0.5 0  -1.479101577239454 0.3541992113802732 0  0.2708871299591885 -0.3541935649795943 0  1.520204106978579 -0.109375 0  0.78125 -0.1026731411563172 0  -0.3125 0.3785994323952442 0  0.3749999999999999 -0.5 0  1.141568346088435 -0.109375 0  1.358431653911565 -0.109375 0  1.668712727161379 -0.1246887081867154 0  -1.673050595238095 0.1226339285714286 0  -1.34375 0 0  -1.431523109243698 0.1313182773109244 0  -0.7546231943577876 0.3660317014105531 0  -0.6233296454587935 0.3645528204344609 0  0.7546231943577878 -0.3660317014105531 0  0.6537002726710706 -0.125 0  -0.6441338591766993 0.125 0  1.375 -0.5 0  -2 0.375 0  -1.875 0.5 0  1.625 -0.5 0  -1.625 0.5 0  0.875 -0.5 0  -0.875 0.5 0  0.1249999999999999 -0.5 0  -0.125 0.5 0  2 -0.125 0  -1.125 0.5 0  -1.354082022940739 0.375 0  -0.03500388138134332 0.2732363193989585 0  0.3955099577726473 -0.3752808566622692 0  0.3596026196703111 0.0631070919012526 0  -0.0625 0.394061918116807 0  0.6342080192637126 -0.3582597885274255 0  -1.123666900137815 0.109375 0  -1.744588744588745 0.3803841991341991 0  0.2210084381421171 0.2925777566973838 0  0.8072251313743133 -0.2315819627814412 0  -0.1814335426834733 -0.3282792760620681 0  -0.9356634513979559 0.2218154628239019 0  0.4183753556420685 -0.1414382112841371 0  -0.1238894550978499 -0.2292394949250368 0  0.96875 0 0  1.013652292192466 -0.1102204462032291 0  -0.4393328341626322 0.09834605222123384 0  1.882206434331873 -0.2686982850037661 0  0.1426699461850768 0.2146575767791519 0  -1.886304127069339 0.251758104550396 0  0.2495743011762567 0.06264742837969955 0  -0.78125 0 0  0.04042933102838756 -0.2590839715717854 0  -1.53125 0 0  -0.5823692714154002 0.2663576540687616 0  -0.2594008044921133 0.2871583817002197 0  -0.9375 0.4157678007976423 0  0.9696186653311423 -0.2675997292662616 0  -0.7942971416386473 0.2646257048857303 0  0.06249999999999992 -0.4169388545076413 0  0.1874999999999999 -0.4169388545076413 0  -1.562839467699977 0.2864000626355251 0  -0.1875 0.4157529178973974 0  -0.1223698320396133 0.2179970721626365 0  1.770639498024741 -0.1399156735731578 0  0.9367002721196375 -0.4157324987180338 0  -1.90625 0 0  -0.2298618769854927 -0.08904896555277285 0  0.1397131066802196 -0.232031643549068 0  -0.4375 0.420861596936145 0  -0.3483554784186823 -0.1925292675214375 0  0.59375 0 0  -1.327632151430252 0.1057660692693074 0  -0.9830051201906395 0.3115204496273563 0  1.90625 0 0  1.236354269160391 -0.3993990952861421 0  -1.1875 0.4214935578661845 0  0.5625 -0.4247705455161483 0  -0.7349377422908023 0.1635199768201956 0  -1.583328550170068 0.08705835459183674 0  -1.640104497493491 0.2259991665335075 0  -1.467109316827997 0.2210671404637805 0  0.5896070530325394 -0.2690578560650788 0  0.3266472067106532 -0.167734762534917 0  -0.59375 0 0  -0.546875 0.08448914438556519 0  1.71875 0 0  1.156078290691277 -0.2031315651260504 0  1.337704613095238 -0.2433035714285714 0  1.236312294597949 -0.09486607142857142 0  0.1642123379155914 0.3701207892454864 0  0.2345507206108115 -0.04384512844718241 0  -0.4048861533022036 -0.02273791864794379 0  0.03798857341016919 0.3979165301900267 0  -0.4006523628802168 0.334179001454817 0  -0.1135990210174155 -0.393340785880617 0  1.906775738056482 -0.3598876272511091 0  1.720393990929705 -0.4044642857142857 0  -1.71875 0 0  1.15625 0 0  0.78125 0 0  1.53125 0 0  -0.96875 0 0  1.34375 0 0  -1.15625 0 0  1.142828909845958 -0.4078056758504979 0  0.40697192225457 -0.01923608979840619 0  -1.767708120728825 0.08966855818957545 0  -0.6882384924227143 0.4308047125515967 0  -0.3636785153797087 0.1553944795036722 0  -0.2291274285977749 0.08616080495998404 0  -0.281012338688557 -0.01202669255906096 0  0.3108677056378212 0.2586754570559801 0  -1.151751953043632 0.196872287087452 0  -0.5625 0.4330368698813529 0  0.6875 -0.4328910527173583 0  1.405021000845949 -0.3057191080886871 0  0.546875 -0.08025568181818182 0  0.3713523302229579 0.1599284134935842 0  -1.12196127795563 0.2911449911382941 0  -1.276991293863022 0.2522534749828799 0  1.255195006158927 -0.2798057638555942 0  -0.8388532729558951 0.4114132763440825 0  0.8388532729558953 -0.4114132763440825 0  -0.4557763550657601 0.2486174768248819 0  0.2049883534781638 -0.2934473685517857 0  0.3226059585583683 -0.4273378498573185 0  -1.426982449282418 0.4270508114904024 0  1.397702183984896 -0.4056170514003312 0  0.05467855045156804 0.2285245978493705 0  -0.272823163096586 -0.3046204408381326 0  -0.02656096412551515 -0.4126877256833236 0  -1.807235369718798 0.2933328120993839 0  0.1906985117418444 0.1399478964461678 0  -1.688085622354259 0.3115694793217502 0  1.659329587961023 -0.2879395206246994 0  -1.5625 0.437202380952381 0  1.546313524296827 -0.4210926184041992 0  -1.813279560389256 0.4363923695021056 0  -1.926524548924358 0.4265245489243581 0  -0.1751061200004134 -0.1578066000831913 0  0.2891187728554643 -0.268298186700636 0  0.4721679687499999 -0.2490234375 0  0.7276683718449491 -0.1720688736051095 0  0.4744973194747868 -0.4152356216385488 0  0.9322020604693165 -0.07914563824612769 0  -1.275602471792197 0.4154857864535745 0  -0.828125 0.07552171441918698 0  1.3125 -0.5 0  -1.931646474339171 0.178059096704675 0  -0.7167268019830385 0.08016211756451477 0  1.060414578698922 -0.4368616551407768 0  -1.6875 0.5 0  1.9375 -0.5 0  1.739833210773432 -0.3220974693894793 0  -2 0.3125 0  -1.207440692409131 0.07848980221212992 0  -0.04055821595704934 -0.2377097412335854 0  0.1922531441870086 -0.1190381071624572 0  1.509237778147088 -0.2717758217431455 0  0.8901922386429052 -0.2437760747352658 0  -1.498530569603453 0.07867879855510211 0  0.9849923856958628 -0.1870513965806273 0  1.515605916195201 -0.1906351698786736 0  1.439317880445072 -0.08458133750179306 0  1.932491348856277 -0.2050969650933771 0  1.828075655121533 -0.08087981225769847 0  1
[...]
<PointData  Vectors="f_39"> 
<DataArray  type="Float64"  Name="f_39"  NumberOfComponents="3" format="ascii">2.4024925477581498e+01 -4.9252427987649877e-01 0.0000000000000000e+00  3.4555584619484103e-02 -3.3549518606891515e-01 0.0000000000000000e+00  3.1740609817646369e+01 -1.1384705745900552e+01 0.0000000000000000e+00  3.1211615390288355e+01 -1.1844561116173796e+01 0.0000000000000000e+00  3.0983704482043635e+01 -1.1863967414842982e+01 0.0000000000000000e+00  3.0283595982442396e+01 -1.1986911613012181e+01 0.0000000000000000e+00  2.9933103193648531e+01 -1.1691555674624873e+01 0.0000000000000000e+00  2.9745669006478831e+01 -1.1275471195241815e+01 0.0000000000000000e+00  2.9627901014755043e+01 -1.0956166476661368e+01 0.0000000000000000e+00  2.9630319516569440e+01 -1.0732432188869241e+01 0.0000000000000000e+00  2.9887152902814080e+01 -1.0305207789304429e+01 0.0000000000000000e+00  2.9972783618218369e+01 -1.0236779934032963e+01 0.0000000000000000e+00  3.0085491346761703e+01 -1.0140061011557336e+01 0.0000000000000000e+00  3.0186415504237186e+01 -1.0088743580574555e+01 0.0000000000000000e+00  3.0233341797869038e+01 -1.0039017158225935e+01 0.0000000000000000e+00  3.0341909287489980e+01 -9.9490253629445728e+00 0.0000000000000000e+00  3.0377992838482182e+01 -9.9311417275892460e+00 0.0000000000000000e+00  3.2638264276523294e+01 -3.3696318627652259e-02 0.0000000000000000e+00  3.3809225121016901e+01 -6.7117288089361044e-02 0.0000000000000000e+00  3.3480058201199483e+01 -1.1735744817919239e+01 0.0000000000000000e+00  3.2716638480979682e+01 -1.2583998905694996e+01 0.0000000000000000e+00  3.1983979557330088e+01 -1.2637022045020959e+01 0.0000000000000000e+00  3.1529579798221960e+01 -1.2604845105294659e+01 0.0000000000000000e+00  3.0779491909781502e+01 -1.2507998573671721e+01 0.0000000000000000e+00  3.0279479445560817e+01 -1.2068156897794534e+01 0.0000000000000000e+00  3.0194588634961647e+01 -1.1594993578804271e+01 0.0000000000000000e+00  3.0227822025903023e+01 -1.1370633210889252e+01 0.0000000000000000e+00  3.0264513897425648e+01 -1.1111700602849075e+01 0.0000000000000000e+00  3.0281786498378963e+01 -1.0975719022221469e+01 0.0000000000000000e+00  3.0461697838057702e+01 -1.0854737915255354e+01 0.0000000000000000e+00  3.0484214387937598e+01 -1.0822050939407749e+01 0.0000000000000000e+00  3.0529299888720772e+01 -1.0794199179577770e+01 0.0000000000000000e+00  3.0532159476694464e+01 -1.0807774897998112e+01 0.0000000000000000e+00  3.0520084570895840e+01 -1.0745506814618762e+01 0.0000000000000000e+00  3.1383987565277533e+01 -1.0600353728584087e+01 0.0000000000000000e+00  3.1727693650246142e+01 -1.0661603592628341e+01 0.0000000000000000e+00  3.1688619637841619e+01 -1.0761304121122143e+01 0.0000000000000000e+00  3.1428242784572397e+01 -1.0835229522378638e+01 0.0000000000000000e+00  3.0985178961592208e+01 -1.0789608106390935e+01 0.0000000000000000e+00  3.0740461734930655e+01 -1.0419919136921180e+01 0.0000000000000000e+00  3.0481715213020287e+01 -1.0475401538047388e+01 0.0000000000000000e+00  3.0580261733783651e+01 -1.0463115154261212e+01 0.0000000000000000e+00  3.0720697191677203e+01 -1.0495538826737333e+01 0.0000000000000000e+00  3.1031151186890497e+01 -1.0602693089361800e+01 0.0000000000000000e+00  3.1228078293979614e+01 -1.0745744057874198e+01 0.0000000000000000e+00  3.1199144219479798e+01 -1.1029651726657336e+01 0.0000000000000000e+00  3.0977079318607029e+01 -1.1117938006507215e+01 0.0000000000000000e+00  3.0680321290186747e+01 -1.1015852111515734e+01 0.0000000000000000e+00  3.0790490071139608e+01 -1.0866300141829431e+01 0.0000000000000000e+00  3.0700023941568727e+01 -1.0808708455708564e+01 0.0000000000000000e+00  3.1135841097539490e+01 -1.0626224793039434e+01 0.0000000000000000e+00  3.8020420320673381e+01 -1.4263475277865705e+01 0.0000000000000000e+00  3.1780244157635281e+01 -4.8027242655652556e+00 0.0000000000000000e+00  2.2299602793866235e+01 -2.1783731099360196e+01 0.0000000000000000e+00  3.2030581709215880e+01 -9.9252358915841903e+00 0.0000000000000000e+00  3.4387935382487839e+01 -2.9950354988221166e+00 0.0000000000000000e+00  3.1194122259738236e+01 -8.0257228812243806e+00 0.0000000000000000e+00  4.4531601656946364e+01 -4.0253327693726760e+01 0.0000000000000000e+00  3.2098843857741493e+01 -1.5958296433210784e+00 0.0000000000000000e+00  2.9335175985896697e+01 -1.1651972480075621e+01 0.0000000000000000e+00  3.5194230394304370e+01 -5.3344745447898969e+00 0.0000000000000000e+00  1.5323725767539992e+01 -4.2467115266261189e+01 0.0000000000000000e+00  3.4036704284042244e+01 -1.1040199801310386e+00 0.0000000000000000e+00  3.3257238388510544e+01 -7.3386561970242052e+00 0.0000000000000000e+00  3.2323207343157023e+01 -1.1582064701584311e+01 0.0000000000000000e+00  1.3491260174289019e+01 -3.5783907716454522e-01 0.0000000000000000e+00  3.2440689853795931e+01 -5.5785288450301929e-01 0.0000000000000000e+00  3.0807605884279532e+01 -9.2916159361765835e+00 0.0000000000000000e+00  3.1456078036039489e+01 -1.0709241706145775e+01 0.0000000000000000e+00  3.2008491737865448e+01 -9.4733062239753938e+00 0.0000000000000000e+00  3.1771021862877383e+01 -1.7663707934795521e+01 0.0000000000000000e+00  3.3429646858335758e+01 -4.2795262468255988e+00 0.0000000000000000e+00  4.2555153824781691e+01 -5.8239730905884372e+01 0.0000000000000000e+00  4.1937878907823070e+01 -2.2622776179502356e+01 0.0000000000000000e+00  3.1466987625674768e+01 -3.0588076112227995e+01 0.0000000000000000e+00  3.3372655196348646e+01 -2.0461750894416380e+00 0.0000000000000000e+00  3.3191739025759325e+01 -7.9838446484018749e-02 0.0000000000000000e+00  3.1834881458199263e+01 -3.0230269428057759e+00 0.0000000000000000e+00  3.3218708275994423e+01 -8.3224748228318468e-01 0.0000000000000000e+00  2.5445411485295608e+01 -5.3142866813291938e+01 0.0000000000000000e+00  3.1649401231405228e+01 -6.5496482342793607e+00 0.0000000000000000e+00  3.4439440388695196e+01 -1.0597615526567163e+01 0.0000000000000000e+00  3.1014955891512116e+01 -1.0069737605375161e+01 0.0000000000000000e+00  3.0969156303614156e+01 -1.0620653558823534e+01 0.0000000000000000e+00  3.0885882378788192e+01 -9.9622824169205551e+00 0.0000000000000000e+00  3.4001630642287886e+01 -1.3446922953416111e+01 0.0000000000000000e+00  3.2757145250836970e+01 -5.5875255879764785e+00 0.0000000000000000e+00  3.3449252770348650e+01 -3.1024362149573683e+00 0.0000000000000000e+00  3.4342676231231998e+01 -1.9593744402780389e+00 0.0000000000000000e+00  1.8624858296972377e+01 -3.0984803648845929e+01 0.0000000000000000e+00  3.4703719850190581e+01 -3.9195729177723582e+00 0.0000000000000000e+00  2.6142472326574641e+01 -1.5031980628604549e+01 0.0000000000000000e+00  3.1382399119257798e+01 -1.1030425504216250e+01 0.0000000000000000e+00  3.5645863106069193e+01 -7.6988905430580328e+00 0.0000000000000000e+00  3.3899491679693554e+01 -4.1668055374632779e-01 0.0000000000000000e+00  1.3665635761789154e+01 -5.0640420263057742e+01 0.0000000000000000e+00  3.2193678949451566e+01 -1.0679386926435280e+01 0.0000000000000000e+00  2.5350369944744912e+01 -3.9754143901105373e+01 0.0000000000000000e+00  3.0657157678610314e+01 -1.0867574088041760e+01 0.0000000000000000e+00  3.0310637484374780e+01 -1.0721636321288464e+01 0.0000000000000000e+00  3.6927290309083624e+01 -4.7915143182586540e+01 0.0000000000000000e+00  3.2699798168000974e+01 -1.2255270695888343e+00 0.0000000000000000e+00  3.1064085478880106e+01 -1.1322891139681643e+01 0.0000000000000000e+00  3.1234365151570106e+01 -1.1039910637218853e+01 0.0000000000000000e+00  3.0551051136251623e+01 -6.9039989648701095e+01 0.0000000000000000e+00  3.2835301432668899e+01 -7.8479189954385159e-02 0.0000000000000000e+00  3.2583254494427031e+01 -2.8804896303297695e-01 0.0000000000000000e+00  3.0469843853511740e+01 -1.0242710491938253e+01 0.0000000000000000e+00  3.2659403784185017e+01 -2.6516923107139299e+00 0.0000000000000000e+00  3.1773305420658264e+01 -3.8673848408010993e+00 0.0000000000000000e+00  3.5108417432943298e+01 -2.2781906469682163e+01 0.0000000000000000e+00  3.1776388692155653e+01 -1.1049235203167944e+01 0.0000000000000000e+00  3.4087484047068280e+01 -5.3829611116227118e+00 0.0000000000000000e+00  3.1419545236089760e+01 -1.2758343256558309e+01 0.0000000000000000e+00  2.8609805862899726e+01 -2.3667140645366405e+01 0.0000000000000000e+00  3.2000335957286005e+01 -1.0537193130205399e+01 0.0000000000000000e+00  3.3444824290703529e+01 -8.8929409767275267e+00 0.0000000000000000e+00  3.2019679594753178e+01 -8.3896875385428284e+00 0.0000000000000000e+00  7.1209301244939773e+00 -3.5490966885311348e-01 0.0000000000000000e+00  3.3523865189599455e+01 -3.6748427528499894e-01 0.0000000000000000e+00  3.1558755168129956e+01 -1.0200022919435391e+01 0.0000000000000000e+00  3.2963328199364980e+01 -9.9627197258977755e+00 0.0000000000000000e+00  3.3270087566488776e+01 -1.3663434902439997e+00 0.0000000000000000e+00  3.2813678725242582e+01 -5.1127687080924833e-01 0.0000000000000000e+00  3.0746452128257438e+01 -1.1190666912512800e+01 0.0000000000000000e+00  3.1478695833028212e+01 -9.9489307167338463e+00 0.0000000000000000e+00  3.2724247330364236e+01 -3.5972608440022480e+00 0.0000000000000000e+00  3.5685969842283015e+01 -1.7447715136572370e+01 0.0000000000000000e+00  2.9407455467800087e+01 -1.4546367665430806e+01 0.0000000000000000e+00  3.2650300731875255e+01 -1.8424208451296269e+00 0.0000000000000000e+00  3.2535218020390630e+01 -4.5426749982177519e+00 0.0000000000000000e+00  3.1177533319109994e+01 -1.0857018238151216e+01 0.0000000000000000e+00  3.1459114401950206e+01 -7.3296125495802134e+00 0.0000000000000000e+00  1.5859953008300149e+01 -5.5331324294953419e+01 0.0000000000000000e+00  4.4436192213618590e+01 -2.9845844795309763e+01 0.0000000000000000e+00  3.7604800546754426e+01 -3.7785177848521563e+01 0.0000000000000000e+00  3.1273370412618718e+01 -9.5484231021918351e+00 0.0000000000000000e+00  3.3760115204338476e+01 -1.6145002858259250e+00 0.0000000000000000e+00  3.4738602841736110e+01 -6.4260896318862262e+00 0.0000000000000000e+00  3.1301336514162827e+01 -1.0355681267820847e+01 0.0000000000000000e+00  3.0931176782256799e+01 -8.8292796197894106e+00 0.0000000000000000e+00  3.4057524597658997e+01 -3.6482177973007368e+00 0.0000000000000000e+00  3.3923089802096491e+01 -2.4788395815977822e+00 0.0000000000000000e+00  3.3631797093135710e+01 -1.0559904455168529e+00 0.0000000000000000e+00  2.0627576125016596e+01 -4.6873772970608478e+01 0.0000000000000000e+00  2.0320124906781725e+01 -2.7061356795738082e+01 0.0000000000000000e+00  2.4063036108637714e+01 -3.2736914286835095e+01 0.0000000000000000e+00  3.3499667926720250e+01 -1.1491888148677244e+01 0.0000000000000000e+00  3.2673891029967017e+01 -1.0721289094841044e+01 0.0000000000000000e+00  3.2361032793911932e+01 -6.6078747940443767e+00 0.0000000000000000e+00  3.4271273639537711e+01 -7.8177596347730081e+00 0.0000000000000000e+00  3.1744705864024116e+01 -1.1345456940830566e+01 0.0000000000000000e+00  3.1969577441132603e+01 -2.3765000004266810e+00 0.0000000000000000e+00  1.9130416252670816e+01 -3.6891757208084036e-01 0.0000000000000000e+00  4.0574131640054588e+01 -7.4665726241944682e+01 0.0000000000000000e+00  3.2227632150016113e+01 -1.1067779987082313e+00 0.0000000000000000e+00  4.4617085581645490e+01 -4.9224380167261842e+01 0.0000000000000000e+00  3.1703678950505942e+01 -5.5159665595252640e+00 0.0000000000000000e+00  3.6088351226340833e+01 -1.1709684044013638e+01 0.0000000000000000e+00  3.0570028498873036e+01 -9.6107952686534226e+00 0.0000000000000000e+00  3.0602320586579857e+01 -1.0379864294564191e+01 0.0000000000000000e+00  3.3542420329938601e+01 -8.6147716246163394e-02 0.0000000000000000e+00  3.9989339814489405e+01 -1.8704534090386300e+01 0.0000000000000000e+00  3.8581524692805516e+01 -2.9870400364648312e+01 0.0000000000000000e+00  3.0766808027625451e+01 -1.0805895178964121e+01 0.0000000000000000e+00  3.1512128851235644e+01 -8.9122390007383601e+00 0.0000000000000000e+00  3.1932110597794573e+01 -1.1561983903542780e+01 0.0000000000000000e+00  3.0689917196776918e+01 -1.0651007351944962e+01 0.0000000000000000e+00  3.2329485105862382e+01 -7.4322096095599264e+00 0.0000000000000000e+00  2.7357705462635600e+01 -1.8338014690381279e+01 0.0000000000000000e+00  3.6045826856642776e+01 -5.7802516570442890e+01 0.0000000000000000e+00  3.0619058491626095e+01 -1.1085984411112189e+01 0.0000000000000000e+00  3.3568870720090040e+01 -6.2075275352069550e+00 0.0000000000000000e+00  3.0215059189974404e+01 -1.0371044398257768e+01 0.0000000000000000e+00  3.1732156233677056e+01 -1.4359472538991522e+01 0.0000000000000000e+00  3.2779868072388091e+01 -9.9883888050838294e+00 0.0000000000000000e+00  3.0440721970271071e+01 -1.0443955174206035e+01 0.0000000000000000e+00  3.4991292507118352e+01 -4.6894395928758659e+00 0.0000000000000000e+00  3.4285621765227916e+01 -4.4559186341782357e+00 0.0000000000000000e+00  3.1541607985044585e+01 -1.1134355261502805e+01 0.0000000000000000e+00  3.3144329122927992e+01 -3.6288730918069517e-01 0.0000000000000000e+00  3.0804214902933960e+01 -1.0903549183172826e+01 0.0000000000000000e+00  1.9777771982130382e+01 -6.2722527305975085e+01 0.0000000000000000e+00  3.1587310729093275e+01 -1.0946312198153887e+01 0.0000000000000000e+00  3.0721922860471192e+01 -1.0978472225284465e+01 0.0000000000000000e+00  3.0725822465825182e+01 -1.0309611830151301e+01 0.0000000000000000e+00  1.6915025358389901e+01 -3.6637693256255396e+01 0.0000000000000000e+00  3.2135578561755615e+01 -1.0958012826686133e+01 0.0000000000000000e+00  3.1220462551595592e+01 -1.0627499230881801e+01 0.0000000000000000e+00  3.6097953187826100e+01 -1.3589449505326638e+01 0.0000000000000000e+00  3.3206818109915361e+01 -4.9688418080282233e+00 0.0000000000000000e+00  3.2561629583767264e+01 -1.2370699095813741e+01 0.0000000000000000e+00  3.0562234069254799e+01 -9.9358229169145726e+00 0.0000000000000000e+00  3.0831643227470906e+01 -9.5965574107576916e+00 0.0000000000000000e+00  3.2165148854645459e+01 -4.2328758347255260e+01 0.0000000000000000e+00  3.0890890241188981e+01 -1.0400087131533795e+01 0.0000000000000000e+00  3.0958849534139269e+01 -1.0902885498228091e+01 0.0000000000000000e+00  3.3585911264162640e+01 -7.0212461855789710e-01 0.0000000000000000e+00  3.2053838430428385e+01 -5.1900160995393021e+00 0.0000000000000000e+00  1.1799657756083544e+01 -5.1441408973819627e+01 0.0000000000000000e+00  3.0796494172919715e+01 -1.0785987122811138e+01 0.0000000000000000e+00  3.1058173610958946e+01 -1.0297470677517660e+01 0.0000000000000000e+00  3.1815701258510771e+01 -1.0147548368352997e+01 0.0000000000000000e+00  3.0256362947349242e+01 -1.1212446114344832e+01 0.0000000000000000e+00  3.5473372578829277e+01 -8.8782154022321667e+00 0.0000000000000000e+00  2.4381803751633953e+01 -2.7008026071503270e+01 0.0000000000000000e+00  3.3887772396441328e+01 -1.5322629146925459e+01 0.0000000000000000e+00  3.3813270299137244e+01 -2.0494655280481794e-01 0.0000000000000000e+00  3.2294215139979805e+01 -3.2531475471831151e+00 0.0000000000000000e+00  3.8922347936389265e+01 -2.1073718041462605e+01 0.0000000000000000e+00  3.1625680301856306e+01 -7.8433748392846603e+00 0.0000000000000000e+00  3.1772502626786618e+01 -1.1766092689068291e+01 0.0000000000000000e+00  1.9866875511749754e+01 -4.0819208544477590e+01 0.0000000000000000e+00  2.6537717907593283e+01 -4.6490083393552986e+01 0.0000000000000000e+00  2.8475408435693030e+01 -3.5784439355594841e+01 0.0000000000000000e+00  3.2836039074854661e+01 -8.0673792707026042e+00 0.0000000000000000e+00  3.2133986869061943e+01 -1.0099944604698006e+01 0.0000000000000000e+00  3.1715357504050026e+01 -1.1238907416230001e+01 0.0000000000000000e+00  3.1685511470495506e+01 -1.1202306600768113e+01 0.0000000000000000e+00  3.3970925208165902e+01 -8.1416709591543290e-01 0.0000000000000000e+00  3.3494748715846825e+01 -3.6920332866130519e+00 0.0000000000000000e+00  3.3168279056713274e+01 -2.6156208333536561e+00 0.0000000000000000e+00  3.4020208898950784e+01 -3.1063697391096778e+00 0.0000000000000000e+00  3.0556536619116841e+01 -1.0921963819937476e+01 0.0000000000000000e+00  3.1823935832478085e+01 -1.0675787401683831e+01 0.0000000000000000e+00  3.1178856775415419e+01 -1.1431056152041169e+01 0.0000000000000000e+00  3.0606695693366536e+01 -1.0761718035428439e+01 0.0000000000000000e+00  3.1622963503741609e+01 -1.0508026383935999e+01 0.0000000000000000e+00  3.0294883808021797e+01 -1.0167634344178937e+01 0.0000000000000000e+00  3.2898088767272490e+01 -2.3460725302225030e-01 0.0000000000000000e+00  3.2643552803869177e+01 -7.3266000541562948e-01 0.0000000000000000e+00  1.4546841557208753e+01 -4.7689852476305148e+01 0.0000000000000000e+00  3.4520770773006589e+01 -3.3922055986569370e+00 0.0000000000000000e+00  3.5712294033082330e+01 -6.2763963749480007e+00 0.0000000000000000e+00  3.4141490923149597e+01 -1.4560813024218535e+00 0.0000000000000000e+00  2.7646512345227777e+01 -1.3201264895958003e+01 0.0000000000000000e+00  3.4373344987967037e+01 -2.5227534519837689e+00 0.0000000000000000e+00  2.3782321955593176e+01 -1.7902005052226258e+01 0.0000000000000000e+00  3.2237618449909291e+01 -3.6976277555636723e+00 0.0000000000000000e+00  3.2955575270411423e+01 -1.1152993862019736e+01 0.0000000000000000e+00  1.7005048911520507e+01 -5.0368625328803233e+01 0.0000000000000000e+00  3.3487055083622558e+01 -1.0523603780993556e+01 0.0000000000000000e+00  3.1422793805407107e+01 -1.0928280517016738e+01 0.0000000000000000e+00  3.1225183534536075e+01 -1.0936860148831322e+01 0.0000000000000000e+00  3.1007244522470490e+01 -1.0969913572436260e+01 0.0000000000000000e+00  3.0533332433416923e+01 -1.1509663989095101e+01 0.0000000000000000e+00  3.0332005812319302e+01 -2.0719569692973852e+01 0.0000000000000000e+00  3.2426365688559642e+01 -1.0188898800775624e+01 0.0000000000000000e+00  3.1900359493474053e+01 -6.8998654254282874e+00 0.0000000000000000e+00  3.2825559045495524e+01 -2.3326125633353336e+00 0.0000000000000000e+00  3.4300727046180242e+01 -9.5782267733622675e+00 0.0000000000000000e+00  3.1329033573502198e+01 -1.1895128904426370e+01 0.0000000000000000e+00  3.3528921808909047e+01 -1.9619807693302231e+01 0.0000000000000000e+00  3.1878220173794858e+01 -2.6079365804886713e+01 0.0000000000000000e+00  3.2998871610007484e+01 -3.0943580807573428e+00 0.0000000000000000e+00  3.4603262032222652e+01 -1.1885257781329107e+01 0.0000000000000000e+00  3.2113689922149547e+01 -5.8490377188038165e+00 0.0000000000000000e+00  3.1712763406860137e+01 -1.0804231656378011e+01 0.0000000000000000e+00  3.1275493236733638e+01 -9.8616227175750328e+00 0.0000000000000000e+00  3.1100631886236599e+01 -9.2045011592759156e+00 0.0000000000000000e+00  4.2084272564171407e+01 -3.4076193995403571e+01 0.0000000000000000e+00  3.2328624128458181e+01 -2.2548792229881771e+00 0.0000000000000000e+00  3.0700440578744860e+01 -1.0847699262275180e+01 0.0000000000000000e+00  3.0001625934686743e+01 -1.0600994166904915e+01 0.0000000000000000e+00  3.0442641823799629e+01 -1.0061991230400036e+01 0.0000000000000000e+00  2.6840677870839244e+01 -5.9347498337660447e+01 0.0000000000000000e+00  3.1043738701696398e+01 -1.0885927062348356e+01 0.0000000000000000e+00  3.1166263223558687e+01 -5.1175540196327375e+01 0.0000000000000000e+00  3.2993562350509031e+01 -1.0701485174656167e+00 0.0000000000000000e+00  4.2068040488062032e+01 -4.3255713832859378e+01 0.0000000000000000e+00  3.2416221296092836e+01 -1.5294735347521835e+00 0.0000000000000000e+00  4.0100816838674241e+01 -6.5384609781788043e+01 0.0000000000000000e+00  3.1072066353319503e+01 -7.6444305470801098e+01 0.0000000000000000e+00  3.0567986384466440e+01 -1.0599227563232226e+01 0.0000000000000000e+00  3.1492500377257628e+01 -9.7260522585014169e+00 0.0000000000000000e+00  3.2432479251504091e+01 -8.9893424928246173e+00 0.0000000000000000e+00  3.4004687567379676e+01 -7.1133843549208349e+00 0.0000000000000000e+00  3.1522405961045131e+01 -8.3545318470089800e+00 0.0000000000000000e+00  3.4723231582248005e+01 -5.0528429174285234e+00 0.0000000000000000e+00  4.0225435404009410e+01 -2.5191128613357321e+01 0.0000000000000000e+00  3.0409036437