<?xml version="1.0"?>
<VTKFile type="UnstructuredGrid"  version="0.1"  >
<UnstructuredGrid>
<Piece  NumberOfPoints="1981" NumberOfCells="3668">
<Points>
<DataArray  type="Float64"  NumberOfComponents="3"  format="ascii">-2 0.5 0  -2 0 0  -0.5 0 0  -0.4968561049466213 -0.05598223805165387 0  -0.4874639560909119 -0.1112604669781569 0  -0.4719416651541838 -0.1651395309775835 0  -0.4504844339512096 -0.216941869558779 0  -0.4233620996141421 -0.2660160382576682 0  -0.3909157412340148 -0.3117449009293669 0  -0.3535533905932738 -0.3535533905932737 0  -0.3117449009293669 -0.3909157412340148 0  -0.2660160382576683 -0.4233620996141421 0  -0.2169418695587791 -0.4504844339512095 0  -0.1651395309775836 -0.4719416651541837 0  -0.1112604669781573 -0.4874639560909118 0  -0.05598223805165402 -0.4968561049466213 0  -9.184850993605148e-17 -0.5 0  2 -0.5 0  2 0 0  0.5 0 0  0.4968561049466213 0.05598223805165393 0  0.4874639560909118 0.1112604669781572 0  0.4719416651541838 0.1651395309775835 0  0.4504844339512096 0.2169418695587791 0  0.4233620996141421 0.2660160382576683 0  0.3909157412340149 0.3117449009293667 0  0.3535533905932738 0.3535533905932737 0  0.3117449009293668 0.3909157412340149 0  0.2660160382576683 0.4233620996141421 0  0.2169418695587791 0.4504844339512096 0  0.1651395309775837 0.4719416651541837 0  0.1112604669781572 0.4874639560909118 0  0.05598223805165384 0.4968561049466213 0  3.061616997868383e-17 0.5 0  0.1398708344106534 0.05418624992807294 0  0.15 0 0  0.1398708344106534 -0.05418624992807295 0  0.1108513375830988 -0.1010543465469837 0  0.06686075336648065 -0.1342744937032594 0  0.01384025391949536 -0.1493601264442552 0  -0.04104944851081246 -0.1442738464759228 0  -0.09039519545688858 -0.1197025840920358 0  -0.1275325703594421 -0.07896482443160337 0  -0.1474459649525853 -0.02756242767248552 0  -0.1474459649525853 0.02756242767248555 0  -0.1275325703594421 0.07896482443160341 0  -0.09039519545688844 0.1197025840920359 0  -0.04104944851081243 0.1442738464759228 0  0.0138402539194953 0.1493601264442552 0  0.06686075336648074 0.1342744937032593 0  0.1108513375830989 0.1010543465469836 0  -1 0.5 0  1 -0.5 0  -1.25 0 0  -0.5 0.5 0  1.25 0 0  0.4999999999999999 -0.5 0  -1.5 0.5 0  1.5 -0.5 0  -0.875 0 0  0.875 0 0  -1.625 0 0  1.625 0 0  0.6875 -0.2500000000000001 0  -0.6875 0.25 0  -2 0.25 0  1.75 -0.5 0  0.2499999999999999 -0.5 0  -0.3583969912126916 0.25 0  0.3749999999999999 -0.25 0  -1.0625 0.21875 0  1.0625 -0.21875 0  -1.75 0.5 0  -1.25 0.5 0  -1.375 0.25 0  1.4375 -0.21875 0  2 -0.25 0  1.25 -0.5 0  1.7375 -0.2375 0  -1.7375 0.2375 0  0.75 -0.5 0  -0.75 0.5 0  -0.25 0.5 0  -0.1570377317087672 0.3153742794659282 0  0.1249999999999999 -0.3338777090152827 0  -0.8826650943396226 0.3263561320754717 0  0.8826650943396227 -0.3263561320754717 0  1.25 -0.1897321428571428 0  1.4375 0 0  -1.4375 0 0  1.0625 0 0  -1.0625 0 0  -0.6875 0 0  0.6875 0 0  1.8125 0 0  -1.8125 0 0  0.3263011380546194 -0.06940056902730968 0  -1.554017857142857 0.1790178571428572 0  0.08847100915780901 0.3109433440851622 0  -0.2412983234264066 -0.2156373655531345 0  -1.625 0.3744047619047619 0  1.625 -0.3744047619047619 0  0.2743272717766799 0.1698562554772697 0  -0.3279338175957848 0.06764246763930631 0  -1.863068181818182 0.3630681818181818 0  2 -0.375 0  1.875 -0.5 0  -0.05442366733490933 -0.3203147637646457 0  1.321986607142857 -0.3448660714285714 0  1.125 -0.5 0  -1.209821428571429 0.3236607142857143 0  -0.5229484956063458 0.1781011282952406 0  0.9067445847815293 -0.1625224987586892 0  -0.8335714777578845 0.1642411083184135 0  -1.237063437253354 0.1627182813733228 0  -0.4947697009489606 0.3378596801347012 0  0.53125 -0.171875 0  0.5156249999999999 -0.3359375 0  -2 0.125 0  1.873225308641975 -0.1497685185185185 0  0.2341337966231563 -0.1911191776024666 0  -0.625 0.5 0  1.587453076345555 -0.2288757784711196 0  1.8125 -0.3654761904761905 0  -0.3326862624810256 -0.08869875963335262 0  -0.375 0.5 0  1.174048204529175 -0.319244854540162 0  -1.067618031042359 0.3674567846760797 0  -0.96875 0.109375 0  1.481463366596639 -0.3565498074229692 0  1.023503306098383 -0.3576535124663073 0  -0.2265388519390893 0.1866542405407749 0  0.625 -0.5 0  -1.852445652173913 0.1432065217391304 0  -1.375 0.5 0  -1.479101577239454 0.3541992113802732 0  0.2708871299591885 -0.3541935649795943 0  1.520204106978579 -0.109375 0  0.78125 -0.1026731411563172 0  -0.3125 0.3785994323952442 0  0.3749999999999999 -0.5 0  1.141568346088435 -0.109375 0  1.358431653911565 -0.109375 0  1.668712727161379 -0.1246887081867154 0  -1.673050595238095 0.1226339285714286 0  -1.34375 0 0  -1.431523109243698 0.1313182773109244 0  -0.7546231943577876 0.3660317014105531 0  -0.6233296454587935 0.3645528204344609 0  0.7546231943577878 -0.3660317014105531 0  0.6537002726710706 -0.125 0  -0.6441338591766993 0.125 0  1.375 -0.5 0  -2 0.375 0  -1.875 0.5 0  1.625 -0.5 0  -1.625 0.5 0  0.875 -0.5 0  -0.875 0.5 0  0.1249999999999999 -0.5 0  -0.125 0.5 0  2 -0.125 0  -1.125 0.5 0  -1.354082022940739 0.375 0  -0.03500388138134332 0.2732363193989585 0  0.3955099577726473 -0.3752808566622692 0  0.3596026196703111 0.0631070919012526 0  -0.0625 0.394061918116807 0  0.6342080192637126 -0.3582597885274255 0  -1.123666900137815 0.109375 0  -1.744588744588745 0.3803841991341991 0  0.2210084381421171 0.2925777566973838 0  0.8072251313743133 -0.2315819627814412 0  -0.1814335426834733 -0.3282792760620681 0  -0.9356634513979559 0.2218154628239019 0  0.4183753556420685 -0.1414382112841371 0  -0.1238894550978499 -0.2292394949250368 0  0.96875 0 0  1.013652292192466 -0.1102204462032291 0  -0.4393328341626322 0.09834605222123384 0  1.882206434331873 -0.2686982850037661 0  0.1426699461850768 0.2146575767791519 0  -1.886304127069339 0.251758104550396 0  0.2495743011762567 0.06264742837969955 0  -0.78125 0 0  0.04042933102838756 -0.2590839715717854 0  -1.53125 0 0  -0.5823692714154002 0.2663576540687616 0  -0.2594008044921133 0.2871583817002197 0  -0.9375 0.4157678007976423 0  0.9696186653311423 -0.2675997292662616 0  -0.7942971416386473 0.2646257048857303 0  0.06249999999999992 -0.4169388545076413 0  0.1874999999999999 -0.4169388545076413 0  -1.562839467699977 0.2864000626355251 0  -0.1875 0.4157529178973974 0  -0.1223698320396133 0.2179970721626365 0  1.770639498024741 -0.1399156735731578 0  0.9367002721196375 -0.4157324987180338 0  -1.90625 0 0  -0.2298618769854927 -0.08904896555277285 0  0.1397131066802196 -0.232031643549068 0  -0.4375 0.420861596936145 0  -0.3483554784186823 -0.1925292675214375 0  0.59375 0 0  -1.327632151430252 0.1057660692693074 0  -0.9830051201906395 0.3115204496273563 0  1.90625 0 0  1.236354269160391 -0.3993990952861421 0  -1.1875 0.4214935578661845 0  0.5625 -0.4247705455161483 0  -0.7349377422908023 0.1635199768201956 0  -1.583328550170068 0.08705835459183674 0  -1.640104497493491 0.2259991665335075 0  -1.467109316827997 0.2210671404637805 0  0.5896070530325394 -0.2690578560650788 0  0.3266472067106532 -0.167734762534917 0  -0.59375 0 0  -0.546875 0.08448914438556519 0  1.71875 0 0  1.156078290691277 -0.2031315651260504 0  1.337704613095238 -0.2433035714285714 0  1.236312294597949 -0.09486607142857142 0  0.1642123379155914 0.3701207892454864 0  0.2345507206108115 -0.04384512844718241 0  -0.4048861533022036 -0.02273791864794379 0  0.03798857341016919 0.3979165301900267 0  -0.4006523628802168 0.334179001454817 0  -0.1135990210174155 -0.393340785880617 0  1.906775738056482 -0.3598876272511091 0  1.720393990929705 -0.4044642857142857 0  -1.71875 0 0  1.15625 0 0  0.78125 0 0  1.53125 0 0  -0.96875 0 0  1.34375 0 0  -1.15625 0 0  1.142828909845958 -0.4078056758504979 0  0.40697192225457 -0.01923608979840619 0  -1.767708120728825 0.08966855818957545 0  -0.6882384924227143 0.4308047125515967 0  -0.3636785153797087 0.1553944795036722 0  -0.2291274285977749 0.08616080495998404 0  -0.281012338688557 -0.01202669255906096 0  0.3108677056378212 0.2586754570559801 0  -1.151751953043632 0.196872287087452 0  -0.5625 0.4330368698813529 0  0.6875 -0.4328910527173583 0  1.405021000845949 -0.3057191080886871 0  0.546875 -0.08025568181818182 0  0.3713523302229579 0.1599284134935842 0  -1.12196127795563 0.2911449911382941 0  -1.276991293863022 0.2522534749828799 0  1.255195006158927 -0.2798057638555942 0  -0.8388532729558951 0.4114132763440825 0  0.8388532729558953 -0.4114132763440825 0  -0.4557763550657601 0.2486174768248819 0  0.2049883534781638 -0.2934473685517857 0  0.3226059585583683 -0.4273378498573185 0  -1.426982449282418 0.4270508114904024 0  1.397702183984896 -0.4056170514003312 0  0.05467855045156804 0.2285245978493705 0  -0.272823163096586 -0.3046204408381326 0  -0.02656096412551515 -0.4126877256833236 0  -1.807235369718798 0.2933328120993839 0  0.1906985117418444 0.1399478964461678 0  -1.688085622354259 0.3115694793217502 0  1.659329587961023 -0.2879395206246994 0  -1.5625 0.437202380952381 0  1.546313524296827 -0.4210926184041992 0  -1.813279560389256 0.4363923695021056 0  -1.926524548924358 0.4265245489243581 0  -0.1751061200004134 -0.1578066000831913 0  0.2891187728554643 -0.268298186700636 0  0.4721679687499999 -0.2490234375 0  0.7276683718449491 -0.1720688736051095 0  0.4744973194747868 -0.4152356216385488 0  0.9322020604693165 -0.07914563824612769 0  -1.275602471792197 0.4154857864535745 0  -0.828125 0.07552171441918698 0  1.3125 -0.5 0  -1.931646474339171 0.178059096704675 0  -0.7167268019830385 0.08016211756451477 0  1.060414578698922 -0.4368616551407768 0  -1.6875 0.5 0  1.9375 -0.5 0  1.739833210773432 -0.3220974693894793 0  -2 0.3125 0  -1.207440692409131 0.07848980221212992 0  -0.04055821595704934 -0.2377097412335854 0  0.1922531441870086 -0.1190381071624572 0  1.509237778147088 -0.2717758217431455 0  0.8901922386429052 -0.2437760747352658 0  -1.498530569603453 0.07867879855510211 0  0.9849923856958628 -0.1870513965806273 0  1.515605916195201 -0.1906351698786736 0  1.439317880445072 -0.08458133750179306 0  1.932491348856277 -0.2050969650933771 0  1.828075655121533 -0.08087981225769847 0  1
[...]
<PointData  Vectors="f_39"> 
<DataArray  type="Float64"  Name="f_39"  NumberOfComponents="3" format="ascii">-4.6134078523939416e+16 -2.0671455880529738e+17 0.0000000000000000e+00  6.4468571653248950e+15 -4.5156226746900490e+15 0.0000000000000000e+00  6.5348946050734808e+16 -4.6589707029243552e+16 0.0000000000000000e+00  3.1514367927304928e+16 -6.2181276536372072e+16 0.0000000000000000e+00  1.8978674629052324e+16 -4.9986204569367552e+16 0.0000000000000000e+00  1.6017329399566208e+16 -3.7751107099526600e+16 0.0000000000000000e+00  1.7073556401938662e+16 -3.2453631097638388e+16 0.0000000000000000e+00  1.9858866330812820e+16 -2.8382231821919516e+16 0.0000000000000000e+00  2.0580616608669788e+16 -2.5317361370828524e+16 0.0000000000000000e+00  2.2111796176995084e+16 -2.3131851826502492e+16 0.0000000000000000e+00  2.5505972325436812e+16 -1.8339484826446916e+16 0.0000000000000000e+00  2.6169584536473636e+16 -1.6354911410189464e+16 0.0000000000000000e+00  2.7911801753971320e+16 -1.3452221209412022e+16 0.0000000000000000e+00  2.9448329459904528e+16 -1.0726336383506854e+16 0.0000000000000000e+00  3.0571365236386356e+16 -8.7190577330970820e+15 0.0000000000000000e+00  3.3418219593602440e+16 -4.2103480309344970e+15 0.0000000000000000e+00  3.6666829779270424e+16 -2.8252116342224715e+15 0.0000000000000000e+00  6.4579616205393544e+16 3.2232859891330456e+10 0.0000000000000000e+00  6.4586513419019584e+16 -2.4286743965275314e+11 0.0000000000000000e+00  5.0678183547342344e+16 -5.5304119224601488e+16 0.0000000000000000e+00  2.8903364028127872e+16 -5.7817821808922768e+16 0.0000000000000000e+00  1.6942843001835994e+16 -4.6823176774079904e+16 0.0000000000000000e+00  1.5224612146176814e+16 -3.9761878487030640e+16 0.0000000000000000e+00  1.7228573901594224e+16 -3.3066229290692296e+16 0.0000000000000000e+00  1.8513994954685384e+16 -2.8456963695024664e+16 0.0000000000000000e+00  2.1614492366517084e+16 -2.4561263830160164e+16 0.0000000000000000e+00  2.2931087766901076e+16 -2.2225582419157988e+16 0.0000000000000000e+00  2.4472817004720184e+16 -1.9267429043783200e+16 0.0000000000000000e+00  2.5294714372610860e+16 -1.7190875635519348e+16 0.0000000000000000e+00  2.8314296362703916e+16 -1.2937868995879212e+16 0.0000000000000000e+00  2.8971714005479064e+16 -1.0618637298932076e+16 0.0000000000000000e+00  3.1099772560707828e+16 -7.6950517952860800e+15 0.0000000000000000e+00  3.2179467781321148e+16 -5.8766644175883250e+15 0.0000000000000000e+00  3.6190129254322784e+16 -2.4166263385156530e+15 0.0000000000000000e+00  2.8922534136327776e+16 -4.6776538222530872e+16 0.0000000000000000e+00  1.6096065605027418e+16 -3.6373168749521576e+16 0.0000000000000000e+00  1.3742624745556840e+16 -1.2656638577363926e+16 0.0000000000000000e+00  2.4345999944121244e+16 3.5628190990596570e+15 0.0000000000000000e+00  4.3831593011335648e+16 1.0534000457681440e+16 0.0000000000000000e+00  5.9793190836963232e+16 1.3599837894497950e+15 0.0000000000000000e+00  6.0182788448015784e+16 -2.5146704686620412e+16 0.0000000000000000e+00  5.0742068911774056e+16 -3.9687068249784472e+16 0.0000000000000000e+00  3.6932419369839632e+16 -4.5275849760034480e+16 0.0000000000000000e+00  1.8898091471852112e+16 -3.9301028493050176e+16 0.0000000000000000e+00  1.1118866215198686e+16 -2.6263775315561540e+16 0.0000000000000000e+00  1.9866206599541380e+16 -2.5281099087749825e+15 0.0000000000000000e+00  3.4487807230269804e+16 8.7233335036084640e+15 0.0000000000000000e+00  5.2189060455140496e+16 7.9636492017384990e+15 0.0000000000000000e+00  6.2579668483551120e+16 -1.4386741261326376e+16 0.0000000000000000e+00  6.1531959846135280e+16 -2.3433578351156796e+16 0.0000000000000000e+00  4.0286869617858712e+16 -4.6914636440251232e+16 0.0000000000000000e+00  6.2688928652656672e+16 -1.7317653396842116e+14 0.0000000000000000e+00  6.3875393158709504e+16 -1.5372049676812344e+14 0.0000000000000000e+00  6.2137893523957664e+16 -2.0566497724890831e+14 0.0000000000000000e+00  5.3820932206676680e+16 -1.1792592443438860e+15 0.0000000000000000e+00  6.4738014966772832e+16 -2.6695397042648367e+13 0.0000000000000000e+00  5.5216725899235608e+16 -1.2631901242707892e+15 0.0000000000000000e+00  6.9449533405003080e+16 -1.2526876414329802e+15 0.0000000000000000e+00  6.4551668757240968e+16 -5.3708431440525166e+12 0.0000000000000000e+00  6.4594239848293064e+16 -3.2988739062010725e+14 0.0000000000000000e+00  6.6229515927539736e+16 -3.6545147539154169e+14 0.0000000000000000e+00  5.2256118916979024e+16 -1.8019970126144770e+15 0.0000000000000000e+00  6.4596975970636616e+16 -1.7474578955248079e+12 0.0000000000000000e+00  6.3562950133547184e+16 -5.1715044747472510e+15 0.0000000000000000e+00  6.2193868260024720e+16 -4.3387166256183445e+15 0.0000000000000000e+00  1.0239235598062866e+16 -6.4154325986495976e+16 0.0000000000000000e+00  6.4575651493067944e+16 -3.4809414075074066e+11 0.0000000000000000e+00  4.5754505864897408e+16 -7.0643367429651950e+14 0.0000000000000000e+00  4.7596548934128016e+16 -1.0581529404613578e+16 0.0000000000000000e+00  4.8949516712648808e+16 -1.1192074021823282e+16 0.0000000000000000e+00  6.3132118647049528e+16 -8.0291865676031938e+14 0.0000000000000000e+00  6.4647902589059528e+16 -4.8558677938812088e+14 0.0000000000000000e+00  9.9806275614388096e+16 -5.5548219753070510e+15 0.0000000000000000e+00  6.4121328001686440e+16 -2.9523975351238681e+14 0.0000000000000000e+00  6.3085757538080480e+16 -2.6098954219727250e+15 0.0000000000000000e+00  6.4593168024548072e+16 -4.2324676341087164e+13 0.0000000000000000e+00  6.4582051919039392e+16 -5.7911410300066797e+11 0.0000000000000000e+00  6.4445912116941808e+16 -2.6600568562961234e+13 0.0000000000000000e+00  6.4582308648930952e+16 -6.9629520069870293e+12 0.0000000000000000e+00  5.6206670174050184e+16 -2.3993298868961572e+16 0.0000000000000000e+00  6.1474058963374136e+16 -4.3914257328363525e+14 0.0000000000000000e+00  6.0539718502149416e+16 -4.1757396341652494e+14 0.0000000000000000e+00  4.5497017904673152e+16 -9.2866686559857075e+14 0.0000000000000000e+00  4.2488979358095512e+16 -4.0190323205354090e+15 0.0000000000000000e+00  4.2747947367688976e+16 -4.0465783116493640e+15 0.0000000000000000e+00  6.2418131267249608e+16 -1.1538185617935238e+15 0.0000000000000000e+00  6.3847195441721920e+16 -1.1949246854903982e+15 0.0000000000000000e+00  6.4623324241574784e+16 -1.4304924694618016e+14 0.0000000000000000e+00  6.4626117352548256e+16 -8.3229389058609600e+12 0.0000000000000000e+00  5.9584501532385920e+16 -5.3354348413027288e+14 0.0000000000000000e+00  6.5069684683163928e+16 -8.1910388253403172e+13 0.0000000000000000e+00  6.3253925415394624e+16 -1.0892342290948897e+14 0.0000000000000000e+00  6.8389851949102984e+16 -1.2751629398952128e+15 0.0000000000000000e+00  7.1512245519548896e+16 -1.5350235349884705e+15 0.0000000000000000e+00  6.4587164758344584e+16 -7.8763750536578430e+11 0.0000000000000000e+00  3.3672408403031616e+16 -3.7819272076904505e+15 0.0000000000000000e+00  3.7620407264556152e+16 -2.6980659874340132e+16 0.0000000000000000e+00  5.9515766355635592e+16 -6.3991599327762150e+15 0.0000000000000000e+00  3.9715773092874336e+16 -1.5013843039222278e+16 0.0000000000000000e+00  3.1176629125915536e+16 -2.8704239576435608e+16 0.0000000000000000e+00  7.1150593741257528e+16 -1.0385016813623166e+16 0.0000000000000000e+00  6.4572451535420456e+16 -1.0837407268969332e+13 0.0000000000000000e+00  2.9685622899282540e+16 -3.3041164990401492e+16 0.0000000000000000e+00  3.8050651477639296e+16 -2.6065965412101924e+16 0.0000000000000000e+00  8.4097471425436560e+16 -7.6784588155892048e+16 0.0000000000000000e+00  6.4579160389117288e+16 -3.0896095916647961e+11 0.0000000000000000e+00  6.4578387947450120e+16 -1.3782975204919690e+11 0.0000000000000000e+00  4.1056231070654016e+16 -1.2263851356602748e+16 0.0000000000000000e+00  6.4531884717288144e+16 -7.2662386384959281e+13 0.0000000000000000e+00  6.4272609262972256e+16 -6.6747277853443266e+13 0.0000000000000000e+00  6.3425874570109624e+16 -9.9812059885563475e+14 0.0000000000000000e+00  6.0760785735900336e+16 -1.2829878449786014e+16 0.0000000000000000e+00  6.5279122076912968e+16 -1.1889789832826118e+15 0.0000000000000000e+00  6.3969685245660520e+16 -1.7965763526792272e+15 0.0000000000000000e+00  6.2679949274017984e+16 -1.1075845334571402e+15 0.0000000000000000e+00  5.4853491015821056e+16 -5.5900749687745750e+15 0.0000000000000000e+00  6.3047756088484784e+16 -1.3864448189103542e+16 0.0000000000000000e+00  5.6076328893720064e+16 -5.8119372276392070e+15 0.0000000000000000e+00  8.5781998677861650e+15 -2.4795828710625192e+16 0.0000000000000000e+00  6.4583585766465624e+16 -1.9830451842852058e+12 0.0000000000000000e+00  3.8444461342739584e+16 -8.8958113463997360e+15 0.0000000000000000e+00  5.7825604629215888e+16 -8.2400114382805638e+14 0.0000000000000000e+00  6.4584365770502600e+16 -1.6885207795587199e+13 0.0000000000000000e+00  6.4577745007272240e+16 -2.9755397596009204e+12 0.0000000000000000e+00  2.7839506804194876e+16 -3.7024307462606888e+16 0.0000000000000000e+00  4.9444062261125600e+16 -1.2080050757254582e+15 0.0000000000000000e+00  6.4469201012840072e+16 -2.1255080298357738e+14 0.0000000000000000e+00  6.3089511165260584e+16 -6.1923020165834500e+14 0.0000000000000000e+00  6.3609118953017392e+16 -6.7418705758344188e+14 0.0000000000000000e+00  6.4560716347060568e+16 -2.6740339116182441e+13 0.0000000000000000e+00  6.4219282147987624e+16 -4.5822411263406306e+14 0.0000000000000000e+00  3.6513421809718064e+16 -8.5336959812668110e+15 0.0000000000000000e+00  5.9001209326567624e+16 -9.1407437824828638e+14 0.0000000000000000e+00  3.0618842119960072e+16 -2.1705936744291956e+16 0.0000000000000000e+00  6.5708422819807672e+16 -4.3069585276374206e+14 0.0000000000000000e+00  6.6278869987834032e+16 -4.0587189334880305e+15 0.0000000000000000e+00  4.5783082145816512e+16 -5.3220844439472380e+15 0.0000000000000000e+00  6.4601056459411224e+16 -1.7479554239385439e+13 0.0000000000000000e+00  6.6922466852366944e+16 -2.1560793879525565e+15 0.0000000000000000e+00  4.6543187017400128e+16 -4.4385765081070035e+15 0.0000000000000000e+00  5.0177550590592080e+16 -8.9521155583139800e+14 0.0000000000000000e+00  6.4804412565224464e+16 -1.9064372842592706e+14 0.0000000000000000e+00  6.4640546217128840e+16 -4.8299667745074641e+13 0.0000000000000000e+00  6.4588982214391048e+16 -7.7628726553037217e+12 0.0000000000000000e+00  5.1551587630973768e+16 -1.0099233531639084e+16 0.0000000000000000e+00  6.1052037105871040e+16 -4.1091683188259344e+14 0.0000000000000000e+00  6.0575889507984840e+16 -2.5264566256182150e+15 0.0000000000000000e+00  6.1005246433561256e+16 -1.8118408325698295e+15 0.0000000000000000e+00  5.8581705623289080e+16 -3.5049096298864195e+15 0.0000000000000000e+00  6.2291983059871392e+16 -2.1258267040722900e+15 0.0000000000000000e+00  6.7772784825196448e+16 -6.4850269608444920e+15 0.0000000000000000e+00  6.6979399417743136e+16 -6.2024181536084830e+15 0.0000000000000000e+00  6.4510925753194504e+16 -1.5632151218665012e+13 0.0000000000000000e+00  3.1238994179331852e+16 -1.2824191809144483e+17 0.0000000000000000e+00  1.8043901755516122e+17 -7.0828507155714392e+16 0.0000000000000000e+00  6.4566893042066848e+16 -1.9419840098334036e+12 0.0000000000000000e+00  7.6539205163620768e+16 -2.6416532227672120e+15 0.0000000000000000e+00  6.3180657481697336e+16 -3.2267696717014806e+14 0.0000000000000000e+00  6.1950046899178992e+16 -2.2509405925723897e+14 0.0000000000000000e+00  4.1820887756722888e+16 -7.2521927204300888e+14 0.0000000000000000e+00  4.1397428357329552e+16 -1.0356416305513852e+15 0.0000000000000000e+00  6.4583247808207568e+16 -1.8904937355889716e+11 0.0000000000000000e+00  6.3402247235832728e+16 -1.8056987299638800e+14 0.0000000000000000e+00  6.4731131316106504e+16 -1.6735916427376802e+15 0.0000000000000000e+00  4.5136746805254264e+16 -5.4148739553400350e+15 0.0000000000000000e+00  5.0905702799594224e+16 -4.8989364554217610e+15 0.0000000000000000e+00  2.9401451748210756e+16 -3.9038501984395288e+16 0.0000000000000000e+00  4.0761729552436712e+16 -4.1734830071376490e+15 0.0000000000000000e+00  6.0317261146660152e+16 -3.7975262211627160e+15 0.0000000000000000e+00  6.2976214974874272e+16 -5.4235615166258875e+14 0.0000000000000000e+00  8.1891964649048640e+16 -2.5107356608351784e+16 0.0000000000000000e+00  3.2075080082787904e+16 -2.2240331945215320e+16 0.0000000000000000e+00  6.4710145298599184e+16 -2.3636254691435375e+15 0.0000000000000000e+00  3.2631990824194528e+16 -1.8631535085775096e+16 0.0000000000000000e+00  6.3259124044898392e+16 -1.1760423171966945e+15 0.0000000000000000e+00  5.2250168146834528e+16 -2.1963659903262528e+16 0.0000000000000000e+00  4.1851380084545096e+16 -2.3795729593336708e+16 0.0000000000000000e+00  6.5600295699921592e+16 -1.8821043846801372e+14 0.0000000000000000e+00  6.5093030670583256e+16 -4.3252111048298094e+14 0.0000000000000000e+00  5.4912982373548232e+16 -2.6429326218516228e+16 0.0000000000000000e+00  6.4581472267612120e+16 -2.4990402656691147e+12 0.0000000000000000e+00  4.2231471587581952e+16 -2.6762833534908956e+16 0.0000000000000000e+00  3.5180392706022900e+16 -4.9827482590158544e+16 0.0000000000000000e+00  2.7761123608563168e+16 -3.7202449102721000e+16 0.0000000000000000e+00  6.6023383991263464e+16 -5.5238449338418875e+14 0.0000000000000000e+00  4.6500940544534632e+16 -4.8234986065325570e+15 0.0000000000000000e+00  5.6675828138691024e+16 -1.1672332759419202e+15 0.0000000000000000e+00  5.9284003079779008e+16 -7.2291280075669960e+15 0.0000000000000000e+00  4.3715925105428520e+16 -6.9440302132576060e+15 0.0000000000000000e+00  6.2483169594474040e+16 -4.9276809008089825e+14 0.0000000000000000e+00  6.4451627385919392e+16 -8.6808526614705688e+14 0.0000000000000000e+00  6.2728792375130352e+16 -2.3927690020629945e+15 0.0000000000000000e+00  3.9993288118177488e+16 -3.6658001744539970e+15 0.0000000000000000e+00  4.3983663993060864e+16 -2.1988009161786548e+15 0.0000000000000000e+00  6.4487486860482472e+16 -8.2520853822537770e+15 0.0000000000000000e+00  4.3379850510189152e+16 -2.3991491318341255e+15 0.0000000000000000e+00  3.9975868985912008e+16 -2.0928545804308319e+14 0.0000000000000000e+00  6.4585126329103864e+16 -4.1973156672712393e+12 0.0000000000000000e+00  6.3631858957488504e+16 -4.4878218677187181e+14 0.0000000000000000e+00  1.9353746275849724e+16 -4.8957203387389970e+15 0.0000000000000000e+00  2.8929491330150684e+16 -3.7506242139085560e+16 0.0000000000000000e+00  4.1744211908970872e+16 -1.9599254529608700e+15 0.0000000000000000e+00  5.2176293165563728e+16 -2.9424161519148385e+15 0.0000000000000000e+00  2.4469237655920040e+16 -3.2584672120044492e+16 0.0000000000000000e+00  8.0840122364006288e+16 -6.9767058382762310e+15 0.0000000000000000e+00  6.1687248590314992e+16 -1.2442604617047335e+15 0.0000000000000000e+00  6.2885038522257864e+16 -8.8369299005092750e+14 0.0000000000000000e+00  6.4583984391082656e+16 -3.8511470418431616e+11 0.0000000000000000e+00  6.4435215307481728e+16 -1.0530377264198239e+14 0.0000000000000000e+00  6.3647103389967240e+16 -4.8153902022606719e+14 0.0000000000000000e+00  5.7130371368199320e+16 -2.6139522120562460e+15 0.0000000000000000e+00  6.4547580360646472e+16 -3.5572259301679485e+15 0.0000000000000000e+00  5.5641153997423336e+16 -4.4251100311208505e+15 0.0000000000000000e+00  5.9432602758426560e+16 -1.2908684796245958e+16 0.0000000000000000e+00  6.1852930236893104e+16 -4.4188500158731635e+15 0.0000000000000000e+00  6.0635840812420008e+16 -7.4296382465674530e+15 0.0000000000000000e+00  4.3615459415148600e+16 -1.7096195710489596e+16 0.0000000000000000e+00  7.6916826708869472e+16 -5.9164329238537310e+15 0.0000000000000000e+00  7.2703658295440784e+16 -1.5302015256454278e+16 0.0000000000000000e+00  6.4590072314234304e+16 -1.6751338002934683e+12 0.0000000000000000e+00  6.4657292610636296e+16 -2.7050308819445416e+14 0.0000000000000000e+00  6.4581031710187840e+16 -8.4889498995535750e+13 0.0000000000000000e+00  6.4710131750520936e+16 -9.6400495904386344e+13 0.0000000000000000e+00  3.2705924620553676e+16 -1.5289068154965718e+16 0.0000000000000000e+00  2.5373382128134660e+16 -2.2248203131619028e+16 0.0000000000000000e+00  3.7455014448007872e+16 -4.5948180143586032e+16 0.0000000000000000e+00  3.7614666776286864e+16 -6.9297044278489930e+15 0.0000000000000000e+00  5.0526509568671080e+16 -6.6216636324858280e+15 0.0000000000000000e+00  3.3925335222613784e+16 -1.1478642400291722e+16 0.0000000000000000e+00  6.4580049492532392e+16 -1.0100871954476505e+12 0.0000000000000000e+00  6.4575401736085296e+16 -3.9504797934007378e+12 0.0000000000000000e+00  4.3075613657508288e+16 -2.6736109562891515e+15 0.0000000000000000e+00  6.4849422000796240e+16 -4.2171559807883000e+13 0.0000000000000000e+00  6.7574043467944336e+16 -7.4581925005191650e+14 0.0000000000000000e+00  6.4607356848269712e+16 -3.5637868220303613e+12 0.0000000000000000e+00  6.3749190068730760e+16 -1.4059616208008630e+14 0.0000000000000000e+00  6.4667348192785336e+16 -1.3815422092910461e+13 0.0000000000000000e+00  6.2742645340140160e+16 -1.4126296640001531e+14 0.0000000000000000e+00  6.4368150711050432e+16 -1.5293452240283394e+14 0.0000000000000000e+00  4.6658042520199776e+16 -4.0654932813984472e+16 0.0000000000000000e+00  4.1534471756515536e+16 -1.1353080308775770e+16 0.0000000000000000e+00  5.9478413123254840e+16 -1.2447820250673310e+15 0.0000000000000000e+00  4.6270525475991048e+16 -1.8044439870921848e+16 0.0000000000000000e+00  2.6856232810747016e+16 -1.6348428539450030e+16 0.0000000000000000e+00  2.8773484299615280e+16 -3.3674346467331836e+16 0.0000000000000000e+00  2.4903146251274104e+16 -2.6415452919433532e+16 0.0000000000000000e+00  6.2996137850397688e+16 -8.7514417997815788e+14 0.0000000000000000e+00  5.6314083215571224e+16 -2.2602403303695975e+15 0.0000000000000000e+00  6.0915335119898512e+16 -1.4918244960266692e+15 0.0000000000000000e+00  6.4557171125880344e+16 -5.8118350420299125e+13 0.0000000000000000e+00  7.1778389710282952e+16 -2.1038526837208948e+16 0.0000000000000000e+00  2.3783042004635860e+16 -3.5642271896527456e+16 0.0000000000000000e+00  6.3159961617146920e+16 -8.1978037766133025e+14 0.0000000000000000e+00  6.3105499771140456e+16 -1.5416640132067452e+15 0.0000000000000000e+00  6.4552381944560904e+16 -1.4043393778590003e+14 0.0000000000000000e+00  6.1678749703183600e+16 -9.3922730928481938e+14 0.0000000000000000e+00  6.3032078752257608e+16 -9.2747248678674825e+14 0.0000000000000000e+00  5.3545198132782400e+16 -1.1579146311124400e+16 0.0000000000000000e+00  4.3086994975829824e+16 -5.5307951452936570e+15 0.0000000000000000e+00  4.8002292247712720e+16 -3.0589328389937970e+15 0.0000000000000000e+00  6.6366160625238584e+16 -1.6039380588983035e+15 0.0000000000000000e+00  6.4534107834359864e+16 -3.2919841506179695e+13 0.0000000000000000e+00  5.0674198161116904e+16 -1.6723390875758472e+16 0.0000000000000000e+00  2.7240063296140676e+16 -2.3144831458169156e+16 0.0000000000000000e+00  3.7656630854923272e+16 -6.8251209666877190e+15 0.0000000000000000e+00  6.0291173214158816e+16 -3.8978020231823240e+16 0.0000000000000000e+00  3.7171199847308272e+16 -3.6817300097195240e+16 0.0000000000000000e+00  6.6391201552805768e+16 -1.8655764087644740e+16 0.0000000000000000e+00  6.4578541546660880e+16 -1.0255692522729324e+13 0.0000000000000000e+00  7.1084377709864208e+16 -3.8445640022175755e+15 0.0000000000000000e+00  6.4561486791602208e+16 -1.2377570944405818e+13 0.0000000000000000e+00  1.0976286504816381e+17 -3.2160408004276964e+16 0.0000000000000000e+00  1.1159924426083554e+17 -1.5277106716987053e+17 0.0000000000000000e+00  3.8027932424027520e+16 -3.5788366906778284e+16 0.0000000000000000e+00  4.4648846059716256e+16 -8.0189156676391680e+15 0.0000000000000000e+00  5.5300202544987576e+16 -1.1353351437319390e+16 0.0000000000000000e+00  6.5874433396436200e+16 -4.3959489563791200e+15 0.0000000000000000e+00  5.4254523890057704e+16 -3.4157930507377095e+15 0.0000000000000000e+00  6.5663572398175480e+16 -5.5744583561733375e+14 0.0000000000000000e+00  6.4281699288548088e+16 -7.7319837156693088e+14 0.0000000000000000e+00  6.480370220394608