<?xml version="1.0"?>
<VTKFile type="UnstructuredGrid"  version="0.1"  >
<UnstructuredGrid>
<Piece  NumberOfPoints="1981" NumberOfCells="3668">
<Points>
<DataArray  type="Float64"  NumberOfComponents="3"  format="ascii">-2 0.5 0  -2 0 0  -0.5 0 0  -0.4968561049466213 -0.05598223805165387 0  -0.4874639560909119 -0.1112604669781569 0  -0.4719416651541838 -0.1651395309775835 0  -0.4504844339512096 -0.216941869558779 0  -0.4233620996141421 -0.2660160382576682 0  -0.3909157412340148 -0.3117449009293669 0  -0.3535533905932738 -0.3535533905932737 0  -0.3117449009293669 -0.3909157412340148 0  -0.2660160382576683 -0.4233620996141421 0  -0.2169418695587791 -0.4504844339512095 0  -0.1651395309775836 -0.4719416651541837 0  -0.1112604669781573 -0.4874639560909118 0  -0.05598223805165402 -0.4968561049466213 0  -9.184850993605148e-17 -0.5 0  2 -0.5 0  2 0 0  0.5 0 0  0.4968561049466213 0.05598223805165393 0  0.4874639560909118 0.1112604669781572 0  0.4719416651541838 0.1651395309775835 0  0.4504844339512096 0.2169418695587791 0  0.4233620996141421 0.2660160382576683 0  0.3909157412340149 0.3117449009293667 0  0.3535533905932738 0.3535533905932737 0  0.3117449009293668 0.3909157412340149 0  0.2660160382576683 0.4233620996141421 0  0.2169418695587791 0.4504844339512096 0  0.1651395309775837 0.4719416651541837 0  0.1112604669781572 0.4874639560909118 0  0.05598223805165384 0.4968561049466213 0  3.061616997868383e-17 0.5 0  0.1398708344106534 0.05418624992807294 0  0.15 0 0  0.1398708344106534 -0.05418624992807295 0  0.1108513375830988 -0.1010543465469837 0  0.06686075336648065 -0.1342744937032594 0  0.01384025391949536 -0.1493601264442552 0  -0.04104944851081246 -0.1442738464759228 0  -0.09039519545688858 -0.1197025840920358 0  -0.1275325703594421 -0.07896482443160337 0  -0.1474459649525853 -0.02756242767248552 0  -0.1474459649525853 0.02756242767248555 0  -0.1275325703594421 0.07896482443160341 0  -0.09039519545688844 0.1197025840920359 0  -0.04104944851081243 0.1442738464759228 0  0.0138402539194953 0.1493601264442552 0  0.06686075336648074 0.1342744937032593 0  0.1108513375830989 0.1010543465469836 0  -1 0.5 0  1 -0.5 0  -1.25 0 0  -0.5 0.5 0  1.25 0 0  0.4999999999999999 -0.5 0  -1.5 0.5 0  1.5 -0.5 0  -0.875 0 0  0.875 0 0  -1.625 0 0  1.625 0 0  0.6875 -0.2500000000000001 0  -0.6875 0.25 0  -2 0.25 0  1.75 -0.5 0  0.2499999999999999 -0.5 0  -0.3583969912126916 0.25 0  0.3749999999999999 -0.25 0  -1.0625 0.21875 0  1.0625 -0.21875 0  -1.75 0.5 0  -1.25 0.5 0  -1.375 0.25 0  1.4375 -0.21875 0  2 -0.25 0  1.25 -0.5 0  1.7375 -0.2375 0  -1.7375 0.2375 0  0.75 -0.5 0  -0.75 0.5 0  -0.25 0.5 0  -0.1570377317087672 0.3153742794659282 0  0.1249999999999999 -0.3338777090152827 0  -0.8826650943396226 0.3263561320754717 0  0.8826650943396227 -0.3263561320754717 0  1.25 -0.1897321428571428 0  1.4375 0 0  -1.4375 0 0  1.0625 0 0  -1.0625 0 0  -0.6875 0 0  0.6875 0 0  1.8125 0 0  -1.8125 0 0  0.3263011380546194 -0.06940056902730968 0  -1.554017857142857 0.1790178571428572 0  0.08847100915780901 0.3109433440851622 0  -0.2412983234264066 -0.2156373655531345 0  -1.625 0.3744047619047619 0  1.625 -0.3744047619047619 0  0.2743272717766799 0.1698562554772697 0  -0.3279338175957848 0.06764246763930631 0  -1.863068181818182 0.3630681818181818 0  2 -0.375 0  1.875 -0.5 0  -0.05442366733490933 -0.3203147637646457 0  1.321986607142857 -0.3448660714285714 0  1.125 -0.5 0  -1.209821428571429 0.3236607142857143 0  -0.5229484956063458 0.1781011282952406 0  0.9067445847815293 -0.1625224987586892 0  -0.8335714777578845 0.1642411083184135 0  -1.237063437253354 0.1627182813733228 0  -0.4947697009489606 0.3378596801347012 0  0.53125 -0.171875 0  0.5156249999999999 -0.3359375 0  -2 0.125 0  1.873225308641975 -0.1497685185185185 0  0.2341337966231563 -0.1911191776024666 0  -0.625 0.5 0  1.587453076345555 -0.2288757784711196 0  1.8125 -0.3654761904761905 0  -0.3326862624810256 -0.08869875963335262 0  -0.375 0.5 0  1.174048204529175 -0.319244854540162 0  -1.067618031042359 0.3674567846760797 0  -0.96875 0.109375 0  1.481463366596639 -0.3565498074229692 0  1.023503306098383 -0.3576535124663073 0  -0.2265388519390893 0.1866542405407749 0  0.625 -0.5 0  -1.852445652173913 0.1432065217391304 0  -1.375 0.5 0  -1.479101577239454 0.3541992113802732 0  0.2708871299591885 -0.3541935649795943 0  1.520204106978579 -0.109375 0  0.78125 -0.1026731411563172 0  -0.3125 0.3785994323952442 0  0.3749999999999999 -0.5 0  1.141568346088435 -0.109375 0  1.358431653911565 -0.109375 0  1.668712727161379 -0.1246887081867154 0  -1.673050595238095 0.1226339285714286 0  -1.34375 0 0  -1.431523109243698 0.1313182773109244 0  -0.7546231943577876 0.3660317014105531 0  -0.6233296454587935 0.3645528204344609 0  0.7546231943577878 -0.3660317014105531 0  0.6537002726710706 -0.125 0  -0.6441338591766993 0.125 0  1.375 -0.5 0  -2 0.375 0  -1.875 0.5 0  1.625 -0.5 0  -1.625 0.5 0  0.875 -0.5 0  -0.875 0.5 0  0.1249999999999999 -0.5 0  -0.125 0.5 0  2 -0.125 0  -1.125 0.5 0  -1.354082022940739 0.375 0  -0.03500388138134332 0.2732363193989585 0  0.3955099577726473 -0.3752808566622692 0  0.3596026196703111 0.0631070919012526 0  -0.0625 0.394061918116807 0  0.6342080192637126 -0.3582597885274255 0  -1.123666900137815 0.109375 0  -1.744588744588745 0.3803841991341991 0  0.2210084381421171 0.2925777566973838 0  0.8072251313743133 -0.2315819627814412 0  -0.1814335426834733 -0.3282792760620681 0  -0.9356634513979559 0.2218154628239019 0  0.4183753556420685 -0.1414382112841371 0  -0.1238894550978499 -0.2292394949250368 0  0.96875 0 0  1.013652292192466 -0.1102204462032291 0  -0.4393328341626322 0.09834605222123384 0  1.882206434331873 -0.2686982850037661 0  0.1426699461850768 0.2146575767791519 0  -1.886304127069339 0.251758104550396 0  0.2495743011762567 0.06264742837969955 0  -0.78125 0 0  0.04042933102838756 -0.2590839715717854 0  -1.53125 0 0  -0.5823692714154002 0.2663576540687616 0  -0.2594008044921133 0.2871583817002197 0  -0.9375 0.4157678007976423 0  0.9696186653311423 -0.2675997292662616 0  -0.7942971416386473 0.2646257048857303 0  0.06249999999999992 -0.4169388545076413 0  0.1874999999999999 -0.4169388545076413 0  -1.562839467699977 0.2864000626355251 0  -0.1875 0.4157529178973974 0  -0.1223698320396133 0.2179970721626365 0  1.770639498024741 -0.1399156735731578 0  0.9367002721196375 -0.4157324987180338 0  -1.90625 0 0  -0.2298618769854927 -0.08904896555277285 0  0.1397131066802196 -0.232031643549068 0  -0.4375 0.420861596936145 0  -0.3483554784186823 -0.1925292675214375 0  0.59375 0 0  -1.327632151430252 0.1057660692693074 0  -0.9830051201906395 0.3115204496273563 0  1.90625 0 0  1.236354269160391 -0.3993990952861421 0  -1.1875 0.4214935578661845 0  0.5625 -0.4247705455161483 0  -0.7349377422908023 0.1635199768201956 0  -1.583328550170068 0.08705835459183674 0  -1.640104497493491 0.2259991665335075 0  -1.467109316827997 0.2210671404637805 0  0.5896070530325394 -0.2690578560650788 0  0.3266472067106532 -0.167734762534917 0  -0.59375 0 0  -0.546875 0.08448914438556519 0  1.71875 0 0  1.156078290691277 -0.2031315651260504 0  1.337704613095238 -0.2433035714285714 0  1.236312294597949 -0.09486607142857142 0  0.1642123379155914 0.3701207892454864 0  0.2345507206108115 -0.04384512844718241 0  -0.4048861533022036 -0.02273791864794379 0  0.03798857341016919 0.3979165301900267 0  -0.4006523628802168 0.334179001454817 0  -0.1135990210174155 -0.393340785880617 0  1.906775738056482 -0.3598876272511091 0  1.720393990929705 -0.4044642857142857 0  -1.71875 0 0  1.15625 0 0  0.78125 0 0  1.53125 0 0  -0.96875 0 0  1.34375 0 0  -1.15625 0 0  1.142828909845958 -0.4078056758504979 0  0.40697192225457 -0.01923608979840619 0  -1.767708120728825 0.08966855818957545 0  -0.6882384924227143 0.4308047125515967 0  -0.3636785153797087 0.1553944795036722 0  -0.2291274285977749 0.08616080495998404 0  -0.281012338688557 -0.01202669255906096 0  0.3108677056378212 0.2586754570559801 0  -1.151751953043632 0.196872287087452 0  -0.5625 0.4330368698813529 0  0.6875 -0.4328910527173583 0  1.405021000845949 -0.3057191080886871 0  0.546875 -0.08025568181818182 0  0.3713523302229579 0.1599284134935842 0  -1.12196127795563 0.2911449911382941 0  -1.276991293863022 0.2522534749828799 0  1.255195006158927 -0.2798057638555942 0  -0.8388532729558951 0.4114132763440825 0  0.8388532729558953 -0.4114132763440825 0  -0.4557763550657601 0.2486174768248819 0  0.2049883534781638 -0.2934473685517857 0  0.3226059585583683 -0.4273378498573185 0  -1.426982449282418 0.4270508114904024 0  1.397702183984896 -0.4056170514003312 0  0.05467855045156804 0.2285245978493705 0  -0.272823163096586 -0.3046204408381326 0  -0.02656096412551515 -0.4126877256833236 0  -1.807235369718798 0.2933328120993839 0  0.1906985117418444 0.1399478964461678 0  -1.688085622354259 0.3115694793217502 0  1.659329587961023 -0.2879395206246994 0  -1.5625 0.437202380952381 0  1.546313524296827 -0.4210926184041992 0  -1.813279560389256 0.4363923695021056 0  -1.926524548924358 0.4265245489243581 0  -0.1751061200004134 -0.1578066000831913 0  0.2891187728554643 -0.268298186700636 0  0.4721679687499999 -0.2490234375 0  0.7276683718449491 -0.1720688736051095 0  0.4744973194747868 -0.4152356216385488 0  0.9322020604693165 -0.07914563824612769 0  -1.275602471792197 0.4154857864535745 0  -0.828125 0.07552171441918698 0  1.3125 -0.5 0  -1.931646474339171 0.178059096704675 0  -0.7167268019830385 0.08016211756451477 0  1.060414578698922 -0.4368616551407768 0  -1.6875 0.5 0  1.9375 -0.5 0  1.739833210773432 -0.3220974693894793 0  -2 0.3125 0  -1.207440692409131 0.07848980221212992 0  -0.04055821595704934 -0.2377097412335854 0  0.1922531441870086 -0.1190381071624572 0  1.509237778147088 -0.2717758217431455 0  0.8901922386429052 -0.2437760747352658 0  -1.498530569603453 0.07867879855510211 0  0.9849923856958628 -0.1870513965806273 0  1.515605916195201 -0.1906351698786736 0  1.439317880445072 -0.08458133750179306 0  1.932491348856277 -0.2050969650933771 0  1.828075655121533 -0.08087981225769847 0  1
[...]
<PointData  Vectors="f_39"> 
<DataArray  type="Float64"  Name="f_39"  NumberOfComponents="3" format="ascii">4.0018475060022169e+01 -9.1906501397973344e+01 0.0000000000000000e+00  4.3850116825068994e+00 -9.5142808263952823e+00 0.0000000000000000e+00  3.8208370223406661e+02 -2.0631011293302157e+02 0.0000000000000000e+00  3.0849230451756489e+02 -2.4716390074291405e+02 0.0000000000000000e+00  2.8002227239112511e+02 -2.3153960766343786e+02 0.0000000000000000e+00  2.4880337700233065e+02 -2.1290219613217303e+02 0.0000000000000000e+00  2.4037700989725903e+02 -1.9055881808683159e+02 0.0000000000000000e+00  2.4153100822078400e+02 -1.7474694864126388e+02 0.0000000000000000e+00  2.4198090106092565e+02 -1.6123494485177258e+02 0.0000000000000000e+00  2.4540958626121079e+02 -1.5223655941509165e+02 0.0000000000000000e+00  2.5352118330990101e+02 -1.3150510957610251e+02 0.0000000000000000e+00  2.5533631893876256e+02 -1.2527001689222493e+02 0.0000000000000000e+00  2.6041077463897631e+02 -1.1494298738412648e+02 0.0000000000000000e+00  2.6498159513184675e+02 -1.0512987664345059e+02 0.0000000000000000e+00  2.6921213619623950e+02 -9.7645175416491810e+01 0.0000000000000000e+00  2.7928632994258038e+02 -7.9457248984892544e+01 0.0000000000000000e+00  2.9137099480697708e+02 -7.7509941592972453e+01 0.0000000000000000e+00  4.3613588563156731e+02 8.7956236145333586e-02 0.0000000000000000e+00  4.4217870429326251e+02 -3.9063978117947068e-01 0.0000000000000000e+00  3.8534344464799955e+02 -2.5063717743156030e+02 0.0000000000000000e+00  3.1393160511799988e+02 -2.6692172342310630e+02 0.0000000000000000e+00  2.7571215719076173e+02 -2.4375932150045398e+02 0.0000000000000000e+00  2.6169057484617935e+02 -2.2634382986497229e+02 0.0000000000000000e+00  2.4727819897579869e+02 -2.0220786768457259e+02 0.0000000000000000e+00  2.4411646675631923e+02 -1.8264818977284588e+02 0.0000000000000000e+00  2.5145624593182140e+02 -1.6628185682013569e+02 0.0000000000000000e+00  2.5348212369558860e+02 -1.5625985107677428e+02 0.0000000000000000e+00  2.5741096188130160e+02 -1.4458069602042707e+02 0.0000000000000000e+00  2.5533167711243891e+02 -1.3824965249382359e+02 0.0000000000000000e+00  2.6710774444515442e+02 -1.2095484969295492e+02 0.0000000000000000e+00  2.6830830566021575e+02 -1.1182170187661663e+02 0.0000000000000000e+00  2.7680318142022634e+02 -1.0079895257798876e+02 0.0000000000000000e+00  2.8254195040715859e+02 -9.6397689234934219e+01 0.0000000000000000e+00  2.9716431530918715e+02 -8.6059381428576188e+01 0.0000000000000000e+00  3.0045092895166414e+02 -1.9261944387947719e+02 0.0000000000000000e+00  2.8664417722411520e+02 -1.7346529506197729e+02 0.0000000000000000e+00  2.7743014114507849e+02 -1.2778359160075999e+02 0.0000000000000000e+00  2.9150529277414643e+02 -9.5982114371545521e+01 0.0000000000000000e+00  3.2493596525564163e+02 -7.6830286543702371e+01 0.0000000000000000e+00  3.5400347499213763e+02 -8.4939204927418828e+01 0.0000000000000000e+00  3.4700239698915107e+02 -1.5181236758118345e+02 0.0000000000000000e+00  3.2573922258357095e+02 -1.8280985969343936e+02 0.0000000000000000e+00  2.9441188659383187e+02 -1.9296208798689170e+02 0.0000000000000000e+00  2.5982266897542434e+02 -1.7795227234642240e+02 0.0000000000000000e+00  2.4205144331636234e+02 -1.4758255538228110e+02 0.0000000000000000e+00  2.7027088372546501e+02 -9.8101869721356110e+01 0.0000000000000000e+00  2.9796368642641499e+02 -7.7995027963325327e+01 0.0000000000000000e+00  3.3465118006629950e+02 -7.5635003941370442e+01 0.0000000000000000e+00  3.5708011010022830e+02 -1.2559129093427387e+02 0.0000000000000000e+00  3.4854386803010954e+02 -1.4218828647857367e+02 0.0000000000000000e+00  3.2126372948057684e+02 -1.9220785368751737e+02 0.0000000000000000e+00  4.2070764888247805e+02 -1.2116852458418462e+02 0.0000000000000000e+00  4.2476137110757281e+02 -2.3917839255369653e+01 0.0000000000000000e+00  3.3014159628645547e+02 -1.4214994317341404e+02 0.0000000000000000e+00  3.7198371389109604e+02 -9.1526476584469435e+01 0.0000000000000000e+00  4.4631384383072452e+02 -1.4276109898004425e+01 0.0000000000000000e+00  3.7726207576345968e+02 -5.3445414249054487e+01 0.0000000000000000e+00  4.5563148446797283e+02 -2.7740438344081502e+02 0.0000000000000000e+00  4.3311589427194963e+02 -7.2705981596483653e+00 0.0000000000000000e+00  3.7777623394460522e+02 -1.0484777010282961e+02 0.0000000000000000e+00  4.5920800934813690e+02 -3.7019315221535528e+01 0.0000000000000000e+00  2.3395464159945266e+02 -2.3610557490561399e+02 0.0000000000000000e+00  4.4314196474435755e+02 -5.3221440224272634e+00 0.0000000000000000e+00  4.2665788654638868e+02 -6.4934813867163413e+01 0.0000000000000000e+00  3.8580720059126304e+02 -1.1366727001823828e+02 0.0000000000000000e+00  1.7600174952672148e+01 -4.3035602915490152e+01 0.0000000000000000e+00  4.3452729473509675e+02 -2.4490950356455854e+00 0.0000000000000000e+00  3.3473660848566220e+02 -5.8804631021668762e+01 0.0000000000000000e+00  3.4102072269220213e+02 -1.1684551884538679e+02 0.0000000000000000e+00  3.6391024708965898e+02 -1.0250770682019468e+02 0.0000000000000000e+00  3.8517526056284288e+02 -1.3543485562781225e+02 0.0000000000000000e+00  4.4029645974491865e+02 -2.4724115529767765e+01 0.0000000000000000e+00  5.4011272843486518e+02 -3.8368067007335907e+02 0.0000000000000000e+00  4.4435394395229724e+02 -1.6005125694458479e+02 0.0000000000000000e+00  3.7453451593943993e+02 -2.0051586850872746e+02 0.0000000000000000e+00  4.3979671280907093e+02 -1.0035091408009707e+01 0.0000000000000000e+00  4.3903892299514251e+02 -2.7858636215873406e-01 0.0000000000000000e+00  4.3049876069576192e+02 -1.3735612819868194e+01 0.0000000000000000e+00  4.3901834494845531e+02 -4.0276867953098234e+00 0.0000000000000000e+00  2.8395078216144850e+02 -3.8261166806806779e+02 0.0000000000000000e+00  4.0968450641662821e+02 -3.6381837945785414e+01 0.0000000000000000e+00  3.9764544339093743e+02 -1.0303389494827364e+02 0.0000000000000000e+00  3.3335496745087966e+02 -8.0744801563755288e+01 0.0000000000000000e+00  3.2080655558228710e+02 -9.6329236529213858e+01 0.0000000000000000e+00  3.2152610046139051e+02 -8.7146612816045234e+01 0.0000000000000000e+00  3.9499366391264397e+02 -1.1629741385843739e+02 0.0000000000000000e+00  4.2945603359611664e+02 -3.6180791102688353e+01 0.0000000000000000e+00  4.4043633068092510e+02 -1.6030472191979612e+01 0.0000000000000000e+00  4.4504928169527454e+02 -9.5068001815660494e+00 0.0000000000000000e+00  2.9091582346682435e+02 -1.8037591988676544e+02 0.0000000000000000e+00  4.5218351808839947e+02 -2.0256119401843254e+01 0.0000000000000000e+00  3.5826753593261498e+02 -1.1579795648839846e+02 0.0000000000000000e+00  3.9938318931946839e+02 -1.0762384668806993e+02 0.0000000000000000e+00  4.7757805785742943e+02 -6.5810724131553471e+01 0.0000000000000000e+00  4.4221264569954855e+02 -2.2217631628902974e+00 0.0000000000000000e+00  1.5951716468013282e+02 -2.8466849252474378e+02 0.0000000000000000e+00  3.3505788425978028e+02 -1.5912576445807937e+02 0.0000000000000000e+00  3.1930261706417798e+02 -2.5862516819103774e+02 0.0000000000000000e+00  3.0162799184325627e+02 -1.2431148446496904e+02 0.0000000000000000e+00  2.7856344404416114e+02 -1.6212305683226197e+02 0.0000000000000000e+00  4.1627466086707022e+02 -3.3809174950288627e+02 0.0000000000000000e+00  4.3635313822888105e+02 -5.8721546049482027e+00 0.0000000000000000e+00  2.8978776549860964e+02 -1.7870651425362868e+02 0.0000000000000000e+00  3.1349837038751014e+02 -1.5652481809117737e+02 0.0000000000000000e+00  3.2255276707078394e+02 -6.4156642178011271e+02 0.0000000000000000e+00  4.3737654877935097e+02 -3.4231106808748191e-01 0.0000000000000000e+00  4.3610726598864420e+02 -1.5373372599979143e+00 0.0000000000000000e+00  3.0423056698744529e+02 -1.1156058722700088e+02 0.0000000000000000e+00  4.3579763781506205e+02 -1.3226874044378524e+01 0.0000000000000000e+00  4.2805865035665511e+02 -1.8314093299495088e+01 0.0000000000000000e+00  3.9954328585011160e+02 -1.6181389534463156e+02 0.0000000000000000e+00  3.7446023489666106e+02 -1.3010066068250987e+02 0.0000000000000000e+00  4.4562768584455375e+02 -3.7935405476695017e+01 0.0000000000000000e+00  3.8683660004117490e+02 -1.1466145925762306e+02 0.0000000000000000e+00  3.6425989257941029e+02 -1.6339376884230541e+02 0.0000000000000000e+00  3.6619686135443044e+02 -1.0604343371631285e+02 0.0000000000000000e+00  4.2181968001836270e+02 -1.0746292738581782e+02 0.0000000000000000e+00  3.8845512463133969e+02 -7.4251284717321099e+01 0.0000000000000000e+00  1.1583901930323256e+01 -2.1953687927935974e+01 0.0000000000000000e+00  4.4044050716655022e+02 -1.8496786888930985e+00 0.0000000000000000e+00  3.2863170945047125e+02 -1.0765410176695363e+02 0.0000000000000000e+00  3.8528568971721620e+02 -9.7572070550330906e+01 0.0000000000000000e+00  4.3906973433412350e+02 -6.8216933874399155e+00 0.0000000000000000e+00  4.3713807775899511e+02 -2.6456302729953598e+00 0.0000000000000000e+00  2.8226666954795382e+02 -1.8715301449884214e+02 0.0000000000000000e+00  3.5209369736772049e+02 -8.5755856428935928e+01 0.0000000000000000e+00  4.3529127520583359e+02 -1.8698906400249466e+01 0.0000000000000000e+00  4.0381096265091958e+02 -1.3618626362100161e+02 0.0000000000000000e+00  3.7670248767727821e+02 -1.1949203523670616e+02 0.0000000000000000e+00  4.3627511364211762e+02 -8.9380200850348732e+00 0.0000000000000000e+00  4.3187026880006249e+02 -2.5168613723436938e+01 0.0000000000000000e+00  3.0994911829374468e+02 -1.1236106389482498e+02 0.0000000000000000e+00  3.9618654490245700e+02 -4.5886667765113707e+01 0.0000000000000000e+00  1.5039860828749300e+02 -3.7156475366678097e+02 0.0000000000000000e+00  4.5725639054644239e+02 -2.0083894728778643e+02 0.0000000000000000e+00  4.1308370687793064e+02 -2.5719196553158082e+02 0.0000000000000000e+00  3.4362933015513141e+02 -8.3957811135048104e+01 0.0000000000000000e+00  4.4183789930633628e+02 -7.8827176346913221e+00 0.0000000000000000e+00  4.5504700148424951e+02 -5.1632376382231413e+01 0.0000000000000000e+00  3.3877343217105334e+02 -9.5924594329343194e+01 0.0000000000000000e+00  3.5706168811974464e+02 -5.8682636275732207e+01 0.0000000000000000e+00  4.4521974707042727e+02 -1.9483694066144931e+01 0.0000000000000000e+00  4.4270841460499975e+02 -1.2006171838097101e+01 0.0000000000000000e+00  4.4092561226018177e+02 -5.1550388009172305e+00 0.0000000000000000e+00  2.5532476519841549e+02 -2.9966268421281768e+02 0.0000000000000000e+00  3.1207252599496911e+02 -1.6408515376050397e+02 0.0000000000000000e+00  3.2665513624812689e+02 -2.0777198392447198e+02 0.0000000000000000e+00  3.9046193403407966e+02 -1.0804060399470953e+02 0.0000000000000000e+00  3.8060602340294815e+02 -1.0680840910573592e+02 0.0000000000000000e+00  4.1659587980354860e+02 -4.6065423059853551e+01 0.0000000000000000e+00  4.5026369505225500e+02 -7.8931101877304528e+01 0.0000000000000000e+00  3.9375157890457137e+02 -1.2083060829293173e+02 0.0000000000000000e+00  4.3285732367989840e+02 -1.0884580937473183e+01 0.0000000000000000e+00  2.9907428382557541e+01 -6.9706118551314788e+01 0.0000000000000000e+00  2.8258389838264230e+02 -9.5837289527773737e+02 0.0000000000000000e+00  4.3381575245039994e+02 -5.2461829773000366e+00 0.0000000000000000e+00  4.8975855859568054e+02 -3.3859403832169636e+02 0.0000000000000000e+00  4.1812663426011602e+02 -2.9581120023197744e+01 0.0000000000000000e+00  4.0233190186115280e+02 -1.0804562209011628e+02 0.0000000000000000e+00  3.1229463092415159e+02 -6.1965813291514820e+01 0.0000000000000000e+00  3.1386627209155949e+02 -8.0439886355679093e+01 0.0000000000000000e+00  4.4067497731711222e+02 -3.7061546041062665e-01 0.0000000000000000e+00  4.2281767330115872e+02 -1.4431351443395695e+02 0.0000000000000000e+00  4.1900028182558367e+02 -2.0277582118511154e+02 0.0000000000000000e+00  3.1984945013543057e+02 -1.0283579104170924e+02 0.0000000000000000e+00  3.6533220028049129e+02 -7.4878945961851755e+01 0.0000000000000000e+00  3.0899614612992889e+02 -2.0134159576885861e+02 0.0000000000000000e+00  3.1044440193511736e+02 -9.3475386909452467e+01 0.0000000000000000e+00  4.0793807314807623e+02 -5.8747946089990435e+01 0.0000000000000000e+00  3.6396508883559682e+02 -1.3482503237549133e+02 0.0000000000000000e+00  4.2735483397049171e+02 -4.5494791999248912e+02 0.0000000000000000e+00  2.8289649410630716e+02 -1.4793819197050834e+02 0.0000000000000000e+00  4.3740572424997634e+02 -4.7710816933639187e+01 0.0000000000000000e+00  2.7766596079724201e+02 -1.3101151725670326e+02 0.0000000000000000e+00  3.8732370088747058e+02 -1.2051362393158344e+02 0.0000000000000000e+00  3.8154585284640945e+02 -1.3995134484375561e+02 0.0000000000000000e+00  3.0386514170001516e+02 -1.4415452913508599e+02 0.0000000000000000e+00  4.5768246117777738e+02 -2.8587516718666635e+01 0.0000000000000000e+00  4.4840795553115407e+02 -2.7072362898664952e+01 0.0000000000000000e+00  3.5543870441235833e+02 -1.5953423309170159e+02 0.0000000000000000e+00  4.3867359800701746e+02 -1.8459381256545331e+00 0.0000000000000000e+00  3.1241278083148086e+02 -1.5225703001079995e+02 0.0000000000000000e+00  1.6063591543927544e+02 -4.9669026678874127e+02 0.0000000000000000e+00  3.0064434044758121e+02 -1.8123217621089384e+02 0.0000000000000000e+00  3.8942163582102120e+02 -1.0284186820784427e+02 0.0000000000000000e+00  3.2396862385775080e+02 -9.8047811138514163e+01 0.0000000000000000e+00  2.6676699632108955e+02 -2.1642318154247030e+02 0.0000000000000000e+00  3.7660212264641956e+02 -1.1572057590949143e+02 0.0000000000000000e+00  3.2860884350993717e+02 -1.0548440018412624e+02 0.0000000000000000e+00  4.0529736671732729e+02 -1.1750365405755559e+02 0.0000000000000000e+00  4.3633231830496356e+02 -3.1553001764972038e+01 0.0000000000000000e+00  3.8873870372287780e+02 -1.1392838654483886e+02 0.0000000000000000e+00  3.0635531875922692e+02 -8.1671119930439332e+01 0.0000000000000000e+00  3.2866764151088347e+02 -7.1280519842997037e+01 0.0000000000000000e+00  3.6848302072744315e+02 -2.9107101750679800e+02 0.0000000000000000e+00  3.2483598960886474e+02 -8.7160343542868560e+01 0.0000000000000000e+00  3.1424078771947285e+02 -9.4310373637002584e+01 0.0000000000000000e+00  4.4088430995105170e+02 -3.3447732918910758e+00 0.0000000000000000e+00  4.2450207094261935e+02 -2.8065543135439675e+01 0.0000000000000000e+00  1.1059374960155785e+02 -2.7914383136529193e+02 0.0000000000000000e+00  2.8198120192026988e+02 -1.7965956352082443e+02 0.0000000000000000e+00  3.2229956040020693e+02 -9.2563959962010912e+01 0.0000000000000000e+00  3.6169171786850944e+02 -9.4212749022861260e+01 0.0000000000000000e+00  2.6387174226301897e+02 -1.8062495144324248e+02 0.0000000000000000e+00  4.9986356054753628e+02 -9.7479470959563727e+01 0.0000000000000000e+00  3.3632249217834425e+02 -1.7516021675174670e+02 0.0000000000000000e+00  3.9482688922648856e+02 -1.2510151235610945e+02 0.0000000000000000e+00  4.4212946636334345e+02 -9.7445819646490206e-01 0.0000000000000000e+00  4.3311955863840336e+02 -1.5888604666219502e+01 0.0000000000000000e+00  4.1836203071120508e+02 -1.5530598293306090e+02 0.0000000000000000e+00  3.8938524604220709e+02 -5.6834278730841035e+01 0.0000000000000000e+00  3.8938548078118680e+02 -1.1476636209455614e+02 0.0000000000000000e+00  2.7328640011628784e+02 -2.5050369873276472e+02 0.0000000000000000e+00  3.0943807120715701e+02 -3.2187195474704941e+02 0.0000000000000000e+00  3.4941376508338908e+02 -2.3844221953379824e+02 0.0000000000000000e+00  4.1211944072074942e+02 -7.7357936523600983e+01 0.0000000000000000e+00  3.4985617134627341e+02 -1.2712854885908281e+02 0.0000000000000000e+00  4.1169849367591132e+02 -1.3140534754343136e+02 0.0000000000000000e+00  3.9643368726878083e+02 -1.4537847123932841e+02 0.0000000000000000e+00  4.4279854255866957e+02 -4.1096815457550990e+00 0.0000000000000000e+00  4.4050319416976032e+02 -2.0080671187347146e+01 0.0000000000000000e+00  4.3878181629735587e+02 -1.3201510923811588e+01 0.0000000000000000e+00  4.4421988169841558e+02 -1.5697301203410095e+01 0.0000000000000000e+00  2.8234237470711793e+02 -1.2792312947572148e+02 0.0000000000000000e+00  3.0269206154178761e+02 -1.4633357661601792e+02 0.0000000000000000e+00  3.1277970707210807e+02 -2.0558656089253296e+02 0.0000000000000000e+00  2.9779415801920044e+02 -1.0128548632409048e+02 0.0000000000000000e+00  3.5202488514220539e+02 -1.0345160820382920e+02 0.0000000000000000e+00  2.8069600142744207e+02 -1.0820083370650323e+02 0.0000000000000000e+00  4.3745599355533699e+02 -1.2571764188711814e+00 0.0000000000000000e+00  4.3616962695501394e+02 -3.6660066983850794e+00 0.0000000000000000e+00  1.9740345641660832e+02 -2.7119414877543949e+02 0.0000000000000000e+00  4.4921201236397542e+02 -1.5913859112408053e+01 0.0000000000000000e+00  4.6866772096899297e+02 -4.7563691202522385e+01 0.0000000000000000e+00  4.4378618064882289e+02 -7.0253610464580261e+00 0.0000000000000000e+00  3.6895898962723015e+02 -1.1092748161798659e+02 0.0000000000000000e+00  4.4533681380471035e+02 -1.1692600376050388e+01 0.0000000000000000e+00  3.4149379007195711e+02 -1.2589985957579457e+02 0.0000000000000000e+00  4.3176613373391046e+02 -1.8595146130077111e+01 0.0000000000000000e+00  3.6344230655245269e+02 -2.0010170956156207e+02 0.0000000000000000e+00  2.0014085334554892e+02 -3.1480034057197668e+02 0.0000000000000000e+00  3.8778803212909520e+02 -1.0204435075756604e+02 0.0000000000000000e+00  3.3526510964882470e+02 -1.3653275010582846e+02 0.0000000000000000e+00  2.8850137008360252e+02 -1.3205064271362497e+02 0.0000000000000000e+00  2.8848112000134279e+02 -1.7369584666419212e+02 0.0000000000000000e+00  2.6726708444971422e+02 -1.6811654533375713e+02 0.0000000000000000e+00  3.7576881857872729e+02 -1.4792086712507813e+02 0.0000000000000000e+00  3.7588330650280614e+02 -9.8775430450616895e+01 0.0000000000000000e+00  4.0736102478579062e+02 -4.5391695014511164e+01 0.0000000000000000e+00  4.3702748499893460e+02 -1.1452864172893745e+01 0.0000000000000000e+00  4.5379783153868243e+02 -1.3881854527144671e+02 0.0000000000000000e+00  2.8032524606397351e+02 -1.9820649826263033e+02 0.0000000000000000e+00  3.9358742921709097e+02 -1.4515132562878773e+02 0.0000000000000000e+00  3.8059184456183579e+02 -1.7955350197424309e+02 0.0000000000000000e+00  4.3753392307229927e+02 -1.5859457280109684e+01 0.0000000000000000e+00  3.9768929900760548e+02 -1.0891073012263894e+02 0.0000000000000000e+00  4.2052452912302721e+02 -3.5620450530664051e+01 0.0000000000000000e+00  3.5763564183376315e+02 -1.2209528286139587e+02 0.0000000000000000e+00  3.3389999612172056e+02 -9.0223582523949560e+01 0.0000000000000000e+00  3.5016470475082713e+02 -7.0526602287105291e+01 0.0000000000000000e+00  4.4283479428822022e+02 -2.3075175673092366e+02 0.0000000000000000e+00  4.3453452446543724e+02 -1.0899706158934064e+01 0.0000000000000000e+00  3.2697183909721770e+02 -1.2872565074029697e+02 0.0000000000000000e+00  2.6043947654324506e+02 -1.4819245868867461e+02 0.0000000000000000e+00  2.9516774469159662e+02 -9.3559477623706172e+01 0.0000000000000000e+00  2.9228216347892936e+02 -4.7816880519628745e+02 0.0000000000000000e+00  3.0731806233909521e+02 -1.7585627345079445e+02 0.0000000000000000e+00  3.5733217386482335e+02 -3.7703254519385018e+02 0.0000000000000000e+00  4.3788952717306364e+02 -5.2363973074458441e+00 0.0000000000000000e+00  4.5173710407849524e+02 -2.9408145472559227e+02 0.0000000000000000e+00  4.3527655943935582e+02 -7.3317024653481360e+00 0.0000000000000000e+00  5.2858708936254584e+02 -5.8151977556875329e+02 0.0000000000000000e+00  3.1765402833750295e+02 -8.3204403138488033e+02 0.0000000000000000e+00  2.9637197823749398e+02 -1.7430365412147171e+02 0.0000000000000000e+00  3.4274266017095101e+02 -9.5998964577595501e+01 0.0000000000000000e+00  3.8790291466924560e+02 -9.7996812609906939e+01 0.0000000000000000e+00  4.4207553948911453e+02 -6.3385616424779904e+01 0.0000000000000000e+00  3.7730582785033232e+02 -6.4359079985095178e+01 0.0000000000000000e+00  4.5353108532748308e+02 -3.3802362326076683e+01 0.0000000000000000e+00  4.2532432662589383e+02 -1.7714248973116062e+02 0.0000000000000000e+00  3.85248068714