<?xml version="1.0"?>
<VTKFile type="UnstructuredGrid"  version="0.1"  >
<UnstructuredGrid>
<Piece  NumberOfPoints="1981" NumberOfCells="3668">
<Points>
<DataArray  type="Float64"  NumberOfComponents="3"  format="ascii">-2 0.5 0  -2 0 0  -0.5 0 0  -0.4968561049466213 -0.05598223805165387 0  -0.4874639560909119 -0.1112604669781569 0  -0.4719416651541838 -0.1651395309775835 0  -0.4504844339512096 -0.216941869558779 0  -0.4233620996141421 -0.2660160382576682 0  -0.3909157412340148 -0.3117449009293669 0  -0.3535533905932738 -0.3535533905932737 0  -0.3117449009293669 -0.3909157412340148 0  -0.2660160382576683 -0.4233620996141421 0  -0.2169418695587791 -0.4504844339512095 0  -0.1651395309775836 -0.4719416651541837 0  -0.1112604669781573 -0.4874639560909118 0  -0.05598223805165402 -0.4968561049466213 0  -9.184850993605148e-17 -0.5 0  2 -0.5 0  2 0 0  0.5 0 0  0.4968561049466213 0.05598223805165393 0  0.4874639560909118 0.1112604669781572 0  0.4719416651541838 0.1651395309775835 0  0.4504844339512096 0.2169418695587791 0  0.4233620996141421 0.2660160382576683 0  0.3909157412340149 0.3117449009293667 0  0.3535533905932738 0.3535533905932737 0  0.3117449009293668 0.3909157412340149 0  0.2660160382576683 0.4233620996141421 0  0.2169418695587791 0.4504844339512096 0  0.1651395309775837 0.4719416651541837 0  0.1112604669781572 0.4874639560909118 0  0.05598223805165384 0.4968561049466213 0  3.061616997868383e-17 0.5 0  0.1398708344106534 0.05418624992807294 0  0.15 0 0  0.1398708344106534 -0.05418624992807295 0  0.1108513375830988 -0.1010543465469837 0  0.06686075336648065 -0.1342744937032594 0  0.01384025391949536 -0.1493601264442552 0  -0.04104944851081246 -0.1442738464759228 0  -0.09039519545688858 -0.1197025840920358 0  -0.1275325703594421 -0.07896482443160337 0  -0.1474459649525853 -0.02756242767248552 0  -0.1474459649525853 0.02756242767248555 0  -0.1275325703594421 0.07896482443160341 0  -0.09039519545688844 0.1197025840920359 0  -0.04104944851081243 0.1442738464759228 0  0.0138402539194953 0.1493601264442552 0  0.06686075336648074 0.1342744937032593 0  0.1108513375830989 0.1010543465469836 0  -1 0.5 0  1 -0.5 0  -1.25 0 0  -0.5 0.5 0  1.25 0 0  0.4999999999999999 -0.5 0  -1.5 0.5 0  1.5 -0.5 0  -0.875 0 0  0.875 0 0  -1.625 0 0  1.625 0 0  0.6875 -0.2500000000000001 0  -0.6875 0.25 0  -2 0.25 0  1.75 -0.5 0  0.2499999999999999 -0.5 0  -0.3583969912126916 0.25 0  0.3749999999999999 -0.25 0  -1.0625 0.21875 0  1.0625 -0.21875 0  -1.75 0.5 0  -1.25 0.5 0  -1.375 0.25 0  1.4375 -0.21875 0  2 -0.25 0  1.25 -0.5 0  1.7375 -0.2375 0  -1.7375 0.2375 0  0.75 -0.5 0  -0.75 0.5 0  -0.25 0.5 0  -0.1570377317087672 0.3153742794659282 0  0.1249999999999999 -0.3338777090152827 0  -0.8826650943396226 0.3263561320754717 0  0.8826650943396227 -0.3263561320754717 0  1.25 -0.1897321428571428 0  1.4375 0 0  -1.4375 0 0  1.0625 0 0  -1.0625 0 0  -0.6875 0 0  0.6875 0 0  1.8125 0 0  -1.8125 0 0  0.3263011380546194 -0.06940056902730968 0  -1.554017857142857 0.1790178571428572 0  0.08847100915780901 0.3109433440851622 0  -0.2412983234264066 -0.2156373655531345 0  -1.625 0.3744047619047619 0  1.625 -0.3744047619047619 0  0.2743272717766799 0.1698562554772697 0  -0.3279338175957848 0.06764246763930631 0  -1.863068181818182 0.3630681818181818 0  2 -0.375 0  1.875 -0.5 0  -0.05442366733490933 -0.3203147637646457 0  1.321986607142857 -0.3448660714285714 0  1.125 -0.5 0  -1.209821428571429 0.3236607142857143 0  -0.5229484956063458 0.1781011282952406 0  0.9067445847815293 -0.1625224987586892 0  -0.8335714777578845 0.1642411083184135 0  -1.237063437253354 0.1627182813733228 0  -0.4947697009489606 0.3378596801347012 0  0.53125 -0.171875 0  0.5156249999999999 -0.3359375 0  -2 0.125 0  1.873225308641975 -0.1497685185185185 0  0.2341337966231563 -0.1911191776024666 0  -0.625 0.5 0  1.587453076345555 -0.2288757784711196 0  1.8125 -0.3654761904761905 0  -0.3326862624810256 -0.08869875963335262 0  -0.375 0.5 0  1.174048204529175 -0.319244854540162 0  -1.067618031042359 0.3674567846760797 0  -0.96875 0.109375 0  1.481463366596639 -0.3565498074229692 0  1.023503306098383 -0.3576535124663073 0  -0.2265388519390893 0.1866542405407749 0  0.625 -0.5 0  -1.852445652173913 0.1432065217391304 0  -1.375 0.5 0  -1.479101577239454 0.3541992113802732 0  0.2708871299591885 -0.3541935649795943 0  1.520204106978579 -0.109375 0  0.78125 -0.1026731411563172 0  -0.3125 0.3785994323952442 0  0.3749999999999999 -0.5 0  1.141568346088435 -0.109375 0  1.358431653911565 -0.109375 0  1.668712727161379 -0.1246887081867154 0  -1.673050595238095 0.1226339285714286 0  -1.34375 0 0  -1.431523109243698 0.1313182773109244 0  -0.7546231943577876 0.3660317014105531 0  -0.6233296454587935 0.3645528204344609 0  0.7546231943577878 -0.3660317014105531 0  0.6537002726710706 -0.125 0  -0.6441338591766993 0.125 0  1.375 -0.5 0  -2 0.375 0  -1.875 0.5 0  1.625 -0.5 0  -1.625 0.5 0  0.875 -0.5 0  -0.875 0.5 0  0.1249999999999999 -0.5 0  -0.125 0.5 0  2 -0.125 0  -1.125 0.5 0  -1.354082022940739 0.375 0  -0.03500388138134332 0.2732363193989585 0  0.3955099577726473 -0.3752808566622692 0  0.3596026196703111 0.0631070919012526 0  -0.0625 0.394061918116807 0  0.6342080192637126 -0.3582597885274255 0  -1.123666900137815 0.109375 0  -1.744588744588745 0.3803841991341991 0  0.2210084381421171 0.2925777566973838 0  0.8072251313743133 -0.2315819627814412 0  -0.1814335426834733 -0.3282792760620681 0  -0.9356634513979559 0.2218154628239019 0  0.4183753556420685 -0.1414382112841371 0  -0.1238894550978499 -0.2292394949250368 0  0.96875 0 0  1.013652292192466 -0.1102204462032291 0  -0.4393328341626322 0.09834605222123384 0  1.882206434331873 -0.2686982850037661 0  0.1426699461850768 0.2146575767791519 0  -1.886304127069339 0.251758104550396 0  0.2495743011762567 0.06264742837969955 0  -0.78125 0 0  0.04042933102838756 -0.2590839715717854 0  -1.53125 0 0  -0.5823692714154002 0.2663576540687616 0  -0.2594008044921133 0.2871583817002197 0  -0.9375 0.4157678007976423 0  0.9696186653311423 -0.2675997292662616 0  -0.7942971416386473 0.2646257048857303 0  0.06249999999999992 -0.4169388545076413 0  0.1874999999999999 -0.4169388545076413 0  -1.562839467699977 0.2864000626355251 0  -0.1875 0.4157529178973974 0  -0.1223698320396133 0.2179970721626365 0  1.770639498024741 -0.1399156735731578 0  0.9367002721196375 -0.4157324987180338 0  -1.90625 0 0  -0.2298618769854927 -0.08904896555277285 0  0.1397131066802196 -0.232031643549068 0  -0.4375 0.420861596936145 0  -0.3483554784186823 -0.1925292675214375 0  0.59375 0 0  -1.327632151430252 0.1057660692693074 0  -0.9830051201906395 0.3115204496273563 0  1.90625 0 0  1.236354269160391 -0.3993990952861421 0  -1.1875 0.4214935578661845 0  0.5625 -0.4247705455161483 0  -0.7349377422908023 0.1635199768201956 0  -1.583328550170068 0.08705835459183674 0  -1.640104497493491 0.2259991665335075 0  -1.467109316827997 0.2210671404637805 0  0.5896070530325394 -0.2690578560650788 0  0.3266472067106532 -0.167734762534917 0  -0.59375 0 0  -0.546875 0.08448914438556519 0  1.71875 0 0  1.156078290691277 -0.2031315651260504 0  1.337704613095238 -0.2433035714285714 0  1.236312294597949 -0.09486607142857142 0  0.1642123379155914 0.3701207892454864 0  0.2345507206108115 -0.04384512844718241 0  -0.4048861533022036 -0.02273791864794379 0  0.03798857341016919 0.3979165301900267 0  -0.4006523628802168 0.334179001454817 0  -0.1135990210174155 -0.393340785880617 0  1.906775738056482 -0.3598876272511091 0  1.720393990929705 -0.4044642857142857 0  -1.71875 0 0  1.15625 0 0  0.78125 0 0  1.53125 0 0  -0.96875 0 0  1.34375 0 0  -1.15625 0 0  1.142828909845958 -0.4078056758504979 0  0.40697192225457 -0.01923608979840619 0  -1.767708120728825 0.08966855818957545 0  -0.6882384924227143 0.4308047125515967 0  -0.3636785153797087 0.1553944795036722 0  -0.2291274285977749 0.08616080495998404 0  -0.281012338688557 -0.01202669255906096 0  0.3108677056378212 0.2586754570559801 0  -1.151751953043632 0.196872287087452 0  -0.5625 0.4330368698813529 0  0.6875 -0.4328910527173583 0  1.405021000845949 -0.3057191080886871 0  0.546875 -0.08025568181818182 0  0.3713523302229579 0.1599284134935842 0  -1.12196127795563 0.2911449911382941 0  -1.276991293863022 0.2522534749828799 0  1.255195006158927 -0.2798057638555942 0  -0.8388532729558951 0.4114132763440825 0  0.8388532729558953 -0.4114132763440825 0  -0.4557763550657601 0.2486174768248819 0  0.2049883534781638 -0.2934473685517857 0  0.3226059585583683 -0.4273378498573185 0  -1.426982449282418 0.4270508114904024 0  1.397702183984896 -0.4056170514003312 0  0.05467855045156804 0.2285245978493705 0  -0.272823163096586 -0.3046204408381326 0  -0.02656096412551515 -0.4126877256833236 0  -1.807235369718798 0.2933328120993839 0  0.1906985117418444 0.1399478964461678 0  -1.688085622354259 0.3115694793217502 0  1.659329587961023 -0.2879395206246994 0  -1.5625 0.437202380952381 0  1.546313524296827 -0.4210926184041992 0  -1.813279560389256 0.4363923695021056 0  -1.926524548924358 0.4265245489243581 0  -0.1751061200004134 -0.1578066000831913 0  0.2891187728554643 -0.268298186700636 0  0.4721679687499999 -0.2490234375 0  0.7276683718449491 -0.1720688736051095 0  0.4744973194747868 -0.4152356216385488 0  0.9322020604693165 -0.07914563824612769 0  -1.275602471792197 0.4154857864535745 0  -0.828125 0.07552171441918698 0  1.3125 -0.5 0  -1.931646474339171 0.178059096704675 0  -0.7167268019830385 0.08016211756451477 0  1.060414578698922 -0.4368616551407768 0  -1.6875 0.5 0  1.9375 -0.5 0  1.739833210773432 -0.3220974693894793 0  -2 0.3125 0  -1.207440692409131 0.07848980221212992 0  -0.04055821595704934 -0.2377097412335854 0  0.1922531441870086 -0.1190381071624572 0  1.509237778147088 -0.2717758217431455 0  0.8901922386429052 -0.2437760747352658 0  -1.498530569603453 0.07867879855510211 0  0.9849923856958628 -0.1870513965806273 0  1.515605916195201 -0.1906351698786736 0  1.439317880445072 -0.08458133750179306 0  1.932491348856277 -0.2050969650933771 0  1.828075655121533 -0.08087981225769847 0  1
[...]
<PointData  Vectors="f_39"> 
<DataArray  type="Float64"  Name="f_39"  NumberOfComponents="3" format="ascii">2.4307020015518606e+01 -3.2508695979875561e+00 0.0000000000000000e+00  1.5677514296827949e-01 -4.6745551537212909e-01 0.0000000000000000e+00  5.6081504787419746e+01 -2.5744393093150101e+01 0.0000000000000000e+00  5.5783237153650589e+01 -2.4580642168799017e+01 0.0000000000000000e+00  5.5608107620213232e+01 -2.3915763791956508e+01 0.0000000000000000e+00  5.5566880133554676e+01 -2.2874026989376603e+01 0.0000000000000000e+00  5.5609061436580291e+01 -2.2039302376977151e+01 0.0000000000000000e+00  5.6115390093672424e+01 -2.1431311684953819e+01 0.0000000000000000e+00  5.6293644944535565e+01 -2.0943495362015746e+01 0.0000000000000000e+00  5.6607920409424416e+01 -2.0593512469868195e+01 0.0000000000000000e+00  5.7194954401156629e+01 -1.9889088731211590e+01 0.0000000000000000e+00  5.7322521013938633e+01 -1.9671800349357408e+01 0.0000000000000000e+00  5.7568532216349858e+01 -1.9262195457174681e+01 0.0000000000000000e+00  5.7772075182145990e+01 -1.8871988747243808e+01 0.0000000000000000e+00  5.7924120914251205e+01 -1.8542807495668530e+01 0.0000000000000000e+00  5.8331153184440943e+01 -1.7748142147543284e+01 0.0000000000000000e+00  5.8745699691050490e+01 -1.7510404975558423e+01 0.0000000000000000e+00  6.5851966465188340e+01 -4.9770946122893164e-02 0.0000000000000000e+00  6.9247135622426356e+01 -2.2010440208479301e-01 0.0000000000000000e+00  6.6021709670540702e+01 -2.4528414667640064e+01 0.0000000000000000e+00  6.3051086069030312e+01 -2.6196346717006943e+01 0.0000000000000000e+00  6.1258514909812973e+01 -2.5369100793557426e+01 0.0000000000000000e+00  6.0496253163892774e+01 -2.4714066879051579e+01 0.0000000000000000e+00  6.0000751627673161e+01 -2.3866849643480563e+01 0.0000000000000000e+00  5.9848507867491399e+01 -2.3144714393850979e+01 0.0000000000000000e+00  6.0061387377852242e+01 -2.2592156903900904e+01 0.0000000000000000e+00  6.0136166501528891e+01 -2.2281268561883742e+01 0.0000000000000000e+00  6.0255797206943733e+01 -2.1924861229386448e+01 0.0000000000000000e+00  6.0193814716991895e+01 -2.1696353814144882e+01 0.0000000000000000e+00  6.0624866634748280e+01 -2.1136016814517820e+01 0.0000000000000000e+00  6.0681473948377551e+01 -2.0806449624031817e+01 0.0000000000000000e+00  6.1104310195182890e+01 -2.0413866111936731e+01 0.0000000000000000e+00  6.1364820860303894e+01 -2.0241661276265571e+01 0.0000000000000000e+00  6.2217001344352589e+01 -1.9979472732667173e+01 0.0000000000000000e+00  6.1013773658666153e+01 -2.3573959425883555e+01 0.0000000000000000e+00  5.9968548247989474e+01 -2.2662570697516465e+01 0.0000000000000000e+00  5.9109116489537811e+01 -2.0346811473765012e+01 0.0000000000000000e+00  5.9396680858165659e+01 -1.8664075821730258e+01 0.0000000000000000e+00  6.0646190649883849e+01 -1.7506444257177805e+01 0.0000000000000000e+00  6.1926126566103072e+01 -1.8015724593430033e+01 0.0000000000000000e+00  6.1887726004431308e+01 -2.1102488861093214e+01 0.0000000000000000e+00  6.0733737409432287e+01 -2.2837561450564429e+01 0.0000000000000000e+00  5.9275953858419733e+01 -2.3696181765332071e+01 0.0000000000000000e+00  5.7680184987949204e+01 -2.3643883227925862e+01 0.0000000000000000e+00  5.7167047878226739e+01 -2.2659871851618185e+01 0.0000000000000000e+00  5.8734812813183638e+01 -2.1008395537790868e+01 0.0000000000000000e+00  6.0362806294416991e+01 -2.0094498646270111e+01 0.0000000000000000e+00  6.2152927525225707e+01 -1.9938576851397034e+01 0.0000000000000000e+00  6.3138206660750264e+01 -2.1449531406052717e+01 0.0000000000000000e+00  6.3021401689227254e+01 -2.1973099731641160e+01 0.0000000000000000e+00  6.1918644714749369e+01 -2.3655175098506078e+01 0.0000000000000000e+00  7.3761323806089223e+01 -4.8760815005982245e+01 0.0000000000000000e+00  6.4851749590361266e+01 -9.5819800923833061e+00 0.0000000000000000e+00  3.9323416588150884e+01 -6.2234329819069139e+01 0.0000000000000000e+00  6.8133755324246081e+01 -2.7387810958794020e+01 0.0000000000000000e+00  6.9633416373351906e+01 -6.8089006722439338e+00 0.0000000000000000e+00  6.2677294949101423e+01 -1.4303928616062157e+01 0.0000000000000000e+00  7.5353675140656364e+01 -9.6457914490048850e+01 0.0000000000000000e+00  6.5103997726397765e+01 -4.1513208111616038e+00 0.0000000000000000e+00  4.8766257136030973e+01 -4.0048980403650816e+01 0.0000000000000000e+00  7.0051922268721640e+01 -1.1534929132886782e+01 0.0000000000000000e+00  2.7681383810049446e+01 -9.6895398827268266e+01 0.0000000000000000e+00  6.9392383731120049e+01 -3.0530593895718150e+00 0.0000000000000000e+00  6.6606373696522212e+01 -1.3956896825984785e+01 0.0000000000000000e+00  6.0736760358265656e+01 -3.5024347144093696e+01 0.0000000000000000e+00  1.3582614385640603e+01 -1.3514745701066870e+00 0.0000000000000000e+00  6.5467874900702881e+01 -1.6224616606132090e+00 0.0000000000000000e+00  6.0769102200925559e+01 -1.5892606924554046e+01 0.0000000000000000e+00  6.1588573736542479e+01 -2.5267447704237210e+01 0.0000000000000000e+00  6.3163482817130451e+01 -1.7594069806980553e+01 0.0000000000000000e+00  5.7854009715053557e+01 -5.3883489635948671e+01 0.0000000000000000e+00  6.7674684215340378e+01 -8.9920815414922330e+00 0.0000000000000000e+00  7.3015471394341475e+01 -1.2182263479433551e+02 0.0000000000000000e+00  7.6881084167497747e+01 -6.6316476072146855e+01 0.0000000000000000e+00  5.6049938411521289e+01 -7.7235431045038908e+01 0.0000000000000000e+00  6.7799363439702816e+01 -4.8893728673842620e+00 0.0000000000000000e+00  6.7476250482886357e+01 -2.0249627021660627e-01 0.0000000000000000e+00  6.4978242623981870e+01 -6.7357248876996092e+00 0.0000000000000000e+00  6.7507647894266583e+01 -2.2045625973513716e+00 0.0000000000000000e+00  4.3584686014576263e+01 -1.1624226271916594e+02 0.0000000000000000e+00  6.4267444702112428e+01 -1.2153130073157374e+01 0.0000000000000000e+00  6.9892476967798387e+01 -3.7292483098050859e+01 0.0000000000000000e+00  6.4678080586949633e+01 -2.2190775382199853e+01 0.0000000000000000e+00  6.2409228701576922e+01 -2.2045742140244641e+01 0.0000000000000000e+00  6.0476100153384579e+01 -1.7660025532679605e+01 0.0000000000000000e+00  6.4628933293469487e+01 -4.3848701413877691e+01 0.0000000000000000e+00  6.6236998302995730e+01 -1.1008188470801114e+01 0.0000000000000000e+00  6.7872191539731546e+01 -6.9128197127237794e+00 0.0000000000000000e+00  6.9732002794022151e+01 -4.8897418463192839e+00 0.0000000000000000e+00  3.2967984743494554e+01 -7.8062204335355858e+01 0.0000000000000000e+00  7.0098083352339515e+01 -8.6987239536700471e+00 0.0000000000000000e+00  4.4932556669171070e+01 -4.9511343318005636e+01 0.0000000000000000e+00  5.1649607266067370e+01 -3.2700934404853605e+01 0.0000000000000000e+00  7.0503209187511231e+01 -1.4256755257117797e+01 0.0000000000000000e+00  6.9335894018430636e+01 -1.2606988477021415e+00 0.0000000000000000e+00  2.4619437538837960e+01 -1.0877814846174194e+02 0.0000000000000000e+00  6.2599242747397916e+01 -2.1055107489543069e+01 0.0000000000000000e+00  4.4891021949811929e+01 -9.3429495578331753e+01 0.0000000000000000e+00  6.1704810700502165e+01 -2.1447942182296178e+01 0.0000000000000000e+00  5.7981177568051834e+01 -2.1594577650645636e+01 0.0000000000000000e+00  6.4319769562055313e+01 -1.0829269290601252e+02 0.0000000000000000e+00  6.6295255441160137e+01 -3.1839517926793270e+00 0.0000000000000000e+00  6.1201659464649737e+01 -2.2957724373784501e+01 0.0000000000000000e+00  5.8488673230455653e+01 -2.4239973082875665e+01 0.0000000000000000e+00  5.1127000736392219e+01 -1.4990150619629327e+02 0.0000000000000000e+00  6.6493456725036225e+01 -2.1768859276363101e-01 0.0000000000000000e+00  6.5807217257566293e+01 -8.8533263353922775e-01 0.0000000000000000e+00  5.9568266766520161e+01 -1.9150735309421741e+01 0.0000000000000000e+00  6.6430498155865095e+01 -6.0725155253846941e+00 0.0000000000000000e+00  6.4887677046076902e+01 -8.1260282190905428e+00 0.0000000000000000e+00  6.3917428401236421e+01 -6.4576911592848290e+01 0.0000000000000000e+00  5.9254621557814858e+01 -2.8928428354499850e+01 0.0000000000000000e+00  6.8406498832213657e+01 -1.1046832414650705e+01 0.0000000000000000e+00  5.6072461022832975e+01 -4.0702960269969068e+01 0.0000000000000000e+00  5.1453636905904290e+01 -6.5903601442283900e+01 0.0000000000000000e+00  6.4071215416965927e+01 -2.8542947320903210e+01 0.0000000000000000e+00  6.6666813933092016e+01 -1.7039389164786630e+01 0.0000000000000000e+00  6.3987626801929117e+01 -1.5423094940200018e+01 0.0000000000000000e+00  7.2262644081500991e+00 -8.0481571672362495e-01 0.0000000000000000e+00  6.8341760548045031e+01 -1.0285637728976580e+00 0.0000000000000000e+00  6.1372294062921696e+01 -1.8637392062982798e+01 0.0000000000000000e+00  6.9190681359779063e+01 -3.2175148761706673e+01 0.0000000000000000e+00  6.7595353249847307e+01 -3.4777277711624044e+00 0.0000000000000000e+00  6.6468625911062645e+01 -1.4264035575660383e+00 0.0000000000000000e+00  5.7155035394973943e+01 -2.3220915567083242e+01 0.0000000000000000e+00  6.6407456239956275e+01 -2.4195048042630084e+01 0.0000000000000000e+00  6.6529320321426781e+01 -7.7156532791291221e+00 0.0000000000000000e+00  6.6462012381951098e+01 -5.4270249403233606e+01 0.0000000000000000e+00  5.1717033147331883e+01 -4.7037514671683532e+01 0.0000000000000000e+00  6.6341177507436967e+01 -4.5183726115101939e+00 0.0000000000000000e+00  6.6114122341438403e+01 -9.2656118848714826e+00 0.0000000000000000e+00  6.0334644530664590e+01 -2.2727018671230294e+01 0.0000000000000000e+00  6.3612577942476634e+01 -1.3363183331140949e+01 0.0000000000000000e+00  2.5783357134542680e+01 -1.1769800447666475e+02 0.0000000000000000e+00  7.7995527014817526e+01 -7.8836189171969821e+01 0.0000000000000000e+00  6.6209011442077795e+01 -9.1700022757216942e+01 0.0000000000000000e+00  6.1611757751752840e+01 -1.7061898947227803e+01 0.0000000000000000e+00  6.8640078235102763e+01 -4.0711818137250191e+00 0.0000000000000000e+00  6.9090646635403601e+01 -1.2728120679612053e+01 0.0000000000000000e+00  6.3667434144729498e+01 -2.3866990653815190e+01 0.0000000000000000e+00  6.1654545881696592e+01 -1.5316259365304768e+01 0.0000000000000000e+00  6.8920115949982957e+01 -8.0086588106774155e+00 0.0000000000000000e+00  6.8800418355557454e+01 -5.7813304034904611e+00 0.0000000000000000e+00  6.8462203446117726e+01 -2.8026292485774991e+00 0.0000000000000000e+00  3.6311467909764296e+01 -1.0507537931832431e+02 0.0000000000000000e+00  3.6365248809345893e+01 -7.1302171662118198e+01 0.0000000000000000e+00  4.3139801189845116e+01 -8.1715504183008761e+01 0.0000000000000000e+00  6.5626753039919535e+01 -3.7623522272914194e+01 0.0000000000000000e+00  6.5306663404530525e+01 -3.2422558710901512e+01 0.0000000000000000e+00  6.5278509079908787e+01 -1.2498597146164414e+01 0.0000000000000000e+00  6.8418508726795650e+01 -1.4929453220073700e+01 0.0000000000000000e+00  5.6178401271724709e+01 -3.2256536001642999e+01 0.0000000000000000e+00  6.5216870186619076e+01 -5.6352859912127267e+00 0.0000000000000000e+00  1.9359442872743578e+01 -2.0088998438875052e+00 0.0000000000000000e+00  7.0770559863476720e+01 -1.6580627939590124e+02 0.0000000000000000e+00  6.5163757212168719e+01 -3.0527961570727324e+00 0.0000000000000000e+00  7.6725893255628776e+01 -1.1100569435803834e+02 0.0000000000000000e+00  6.4511456245268292e+01 -1.0672838151115117e+01 0.0000000000000000e+00  7.0654477384718746e+01 -4.1945999436614869e+01 0.0000000000000000e+00  5.9717955740666319e+01 -1.6465388708001235e+01 0.0000000000000000e+00  6.3602285569886469e+01 -2.0668250623302356e+01 0.0000000000000000e+00  6.8449613861410768e+01 -2.3121694691927128e-01 0.0000000000000000e+00  7.4180729565573813e+01 -5.9073118762789086e+01 0.0000000000000000e+00  6.8757848072700568e+01 -7.8140732161381663e+01 0.0000000000000000e+00  6.2124261896763272e+01 -2.1157103089238749e+01 0.0000000000000000e+00  6.2623842778838402e+01 -1.6012342971714624e+01 0.0000000000000000e+00  6.2089238415770119e+01 -2.3405376400466871e+01 0.0000000000000000e+00  6.2483639208343156e+01 -2.0928942909825508e+01 0.0000000000000000e+00  6.4984143430451951e+01 -1.3849181205687648e+01 0.0000000000000000e+00  4.8612477813488717e+01 -5.5514585841888128e+01 0.0000000000000000e+00  6.3914834476021767e+01 -1.2669013580979500e+02 0.0000000000000000e+00  6.1057572838564958e+01 -2.2067023428811567e+01 0.0000000000000000e+00  6.7388713835013334e+01 -1.2201516083445625e+01 0.0000000000000000e+00  5.8244788988950198e+01 -2.0046905810286237e+01 0.0000000000000000e+00  5.7853505235392440e+01 -4.5636789940549264e+01 0.0000000000000000e+00  6.4684907936296440e+01 -1.9388434221240939e+01 0.0000000000000000e+00  5.9531972109049747e+01 -2.0824409951124693e+01 0.0000000000000000e+00  7.0198025195191022e+01 -1.0313691559614954e+01 0.0000000000000000e+00  6.9108666145901253e+01 -9.5737926721094464e+00 0.0000000000000000e+00  5.8214995192214346e+01 -2.6137896241997563e+01 0.0000000000000000e+00  6.7328950844764321e+01 -9.9735530124803129e-01 0.0000000000000000e+00  6.1896486899089091e+01 -2.2296439259355711e+01 0.0000000000000000e+00  2.9844590075467945e+01 -1.3342163332316872e+02 0.0000000000000000e+00  6.1259376031157949e+01 -2.2843205164730726e+01 0.0000000000000000e+00  5.0506461740961818e+01 -3.5964523005514195e+01 0.0000000000000000e+00  6.0613760967383975e+01 -1.8403785382153849e+01 0.0000000000000000e+00  3.0396902434951102e+01 -8.8830813274424699e+01 0.0000000000000000e+00  6.1854646193136666e+01 -3.0697997640625204e+01 0.0000000000000000e+00  6.2093536807092157e+01 -2.3411933246540340e+01 0.0000000000000000e+00  6.9328657409568166e+01 -4.5898716439677351e+01 0.0000000000000000e+00  6.7098047825496849e+01 -1.0136889958694356e+01 0.0000000000000000e+00  6.0699496773176179e+01 -3.9227108405366629e+01 0.0000000000000000e+00  5.9532378658119711e+01 -1.7573994055366967e+01 0.0000000000000000e+00  6.0574349611848582e+01 -1.6709466025477926e+01 0.0000000000000000e+00  5.6363768047513588e+01 -9.8534797799147100e+01 0.0000000000000000e+00  6.3575019354475636e+01 -2.1761048916695007e+01 0.0000000000000000e+00  6.1244998580354263e+01 -2.1261357152178007e+01 0.0000000000000000e+00  6.8468218727994852e+01 -1.9120254288850926e+00 0.0000000000000000e+00  6.5217065232324529e+01 -1.0193224032021041e+01 0.0000000000000000e+00  2.1524188940219233e+01 -1.0812308522688417e+02 0.0000000000000000e+00  5.8074100186207950e+01 -2.3218467824593493e+01 0.0000000000000000e+00  6.0718250818024813e+01 -1.8082698645464781e+01 0.0000000000000000e+00  6.6140611229638552e+01 -2.6319575994077780e+01 0.0000000000000000e+00  5.6817586772239842e+01 -2.2178061846218529e+01 0.0000000000000000e+00  7.1267361992549226e+01 -1.6480416928758842e+01 0.0000000000000000e+00  4.3642488741379474e+01 -7.1638754114370855e+01 0.0000000000000000e+00  6.3207831597492230e+01 -4.8697149267080945e+01 0.0000000000000000e+00  6.9201650270288255e+01 -6.1940163298632833e-01 0.0000000000000000e+00  6.5819916005521335e+01 -7.1136012122990460e+00 0.0000000000000000e+00  7.1293910167876874e+01 -6.2804990631630865e+01 0.0000000000000000e+00  6.3568994330833654e+01 -1.4233433384760731e+01 0.0000000000000000e+00  5.7135478013175998e+01 -3.5939836737925141e+01 0.0000000000000000e+00  3.5072243614464711e+01 -9.5174734729088811e+01 0.0000000000000000e+00  4.5469288844242321e+01 -1.0545749965367125e+02 0.0000000000000000e+00  5.0442960937723541e+01 -8.7613554394260291e+01 0.0000000000000000e+00  6.5667332419585307e+01 -1.5167868713860635e+01 0.0000000000000000e+00  6.2862801857215416e+01 -1.9189088437300875e+01 0.0000000000000000e+00  5.4547376431157957e+01 -2.8212771093531586e+01 0.0000000000000000e+00  5.6413394829633262e+01 -2.8287162725546164e+01 0.0000000000000000e+00  6.9367031516543946e+01 -2.3317324387669895e+00 0.0000000000000000e+00  6.7855887226150486e+01 -7.9788032134500586e+00 0.0000000000000000e+00  6.7372063361585518e+01 -5.9971814828950798e+00 0.0000000000000000e+00  6.8932387194400121e+01 -6.9795565418721814e+00 0.0000000000000000e+00  6.1104798279799880e+01 -2.1424115068227071e+01 0.0000000000000000e+00  6.0842892954531386e+01 -2.0946259891390767e+01 0.0000000000000000e+00  5.6866848823272342e+01 -2.4516818360941858e+01 0.0000000000000000e+00  6.1882470546219039e+01 -2.0774592806555471e+01 0.0000000000000000e+00  6.3514386963068581e+01 -2.5661951344762052e+01 0.0000000000000000e+00  5.8444140284573116e+01 -1.8987047589314468e+01 0.0000000000000000e+00  6.6649096646497199e+01 -6.6745593262924352e-01 0.0000000000000000e+00  6.6063921115619465e+01 -2.0210953351502119e+00 0.0000000000000000e+00  2.6422070640404748e+01 -1.0589199416273081e+02 0.0000000000000000e+00  6.9906482086117947e+01 -7.5459870402543032e+00 0.0000000000000000e+00  7.0362137671217155e+01 -1.2694583691313422e+01 0.0000000000000000e+00  6.9476692643512777e+01 -3.8680476183332519e+00 0.0000000000000000e+00  4.6845970312183596e+01 -4.5303281162776514e+01 0.0000000000000000e+00  6.9638214671794231e+01 -5.8970197060937188e+00 0.0000000000000000e+00  4.1447021130549118e+01 -5.4985380432911604e+01 0.0000000000000000e+00  6.5686601637692235e+01 -7.8712144821806742e+00 0.0000000000000000e+00  6.4619212419003816e+01 -2.2663931053837402e+01 0.0000000000000000e+00  2.9715588168522167e+01 -1.0989967953359627e+02 0.0000000000000000e+00  6.8100879131496825e+01 -3.4858428164237260e+01 0.0000000000000000e+00  5.9690616176102488e+01 -2.5015438345803506e+01 0.0000000000000000e+00  5.8744065146665385e+01 -2.2712074017103323e+01 0.0000000000000000e+00  5.7807536839581346e+01 -2.3519027914723139e+01 0.0000000000000000e+00  6.0541040832493287e+01 -2.2660158915681155e+01 0.0000000000000000e+00  5.4704254584287860e+01 -6.0060551575867457e+01 0.0000000000000000e+00  6.7065769774018193e+01 -3.0189699177251633e+01 0.0000000000000000e+00  6.4462756283671538e+01 -1.2837580446829689e+01 0.0000000000000000e+00  6.6736517605324750e+01 -5.4561289994276905e+00 0.0000000000000000e+00  6.8658861757389033e+01 -1.8725915077780975e+01 0.0000000000000000e+00  6.1085344539822188e+01 -2.3590075211636904e+01 0.0000000000000000e+00  6.1509597169253070e+01 -5.8096915485841365e+01 0.0000000000000000e+00  5.7413478179981468e+01 -7.0573416388615385e+01 0.0000000000000000e+00  6.7035393894626523e+01 -6.8632349203385097e+00 0.0000000000000000e+00  6.7741038383264041e+01 -4.0323252915200079e+01 0.0000000000000000e+00  6.5130291409017090e+01 -1.1278425114673908e+01 0.0000000000000000e+00  6.1318343580860628e+01 -2.7119807570833558e+01 0.0000000000000000e+00  6.1293843863888156e+01 -1.7633314634332901e+01 0.0000000000000000e+00  6.1607526485872086e+01 -1.6193427726917957e+01 0.0000000000000000e+00  7.4336043000370950e+01 -8.6192781641161346e+01 0.0000000000000000e+00  6.5779900392470054e+01 -5.3763847185229139e+00 0.0000000000000000e+00  6.2363167793231369e+01 -2.1632276518423900e+01 0.0000000000000000e+00  5.7346295754760590e+01 -2.0675159560202566e+01 0.0000000000000000e+00  5.9050273547503018e+01 -1.8236425097773758e+01 0.0000000000000000e+00  4.5672468591577122e+01 -1.2898526373394284e+02 0.0000000000000000e+00  6.1663980267953683e+01 -2.2980031525033795e+01 0.0000000000000000e+00  5.4276400428225784e+01 -1.1392492937160591e+02 0.0000000000000000e+00  6.6967743242770553e+01 -2.7864591782692258e+00 0.0000000000000000e+00  7.2759537873181230e+01 -1.0085288262334659e+02 0.0000000000000000e+00  6.5791656680981262e+01 -3.9386510879500216e+00 0.0000000000000000e+00  7.4455573688316221e+01 -1.4268652266418496e+02 0.0000000000000000e+00  5.2892768609219345e+01 -1.7156414031767957e+02 0.0000000000000000e+00  5.9099144311007443e+01 -2.2483450222964581e+01 0.0000000000000000e+00  6.1843794182030670e+01 -1.7668062258087662e+01 0.0000000000000000e+00  6.4433560616313983e+01 -1.6868203509446001e+01 0.0000000000000000e+00  6.7893390934876777e+01 -1.3708877793455944e+01 0.0000000000000000e+00  6.3067800608408682e+01 -1.5049133945052635e+01 0.0000000000000000e+00  6.9571271469433484e+01 -1.0818142457776771e+01 0.0000000000000000e+00  7.2137181108283443e+01 -7.0407083765697166e+01 0.0000000000000000e+00  5.1946552632