<?xml version="1.0"?>
<VTKFile type="UnstructuredGrid"  version="0.1"  >
<UnstructuredGrid>
<Piece  NumberOfPoints="1981" NumberOfCells="3668">
<Points>
<DataArray  type="Float64"  NumberOfComponents="3"  format="ascii">-2 0.5 0  -2 0 0  -0.5 0 0  -0.4968561049466213 -0.05598223805165387 0  -0.4874639560909119 -0.1112604669781569 0  -0.4719416651541838 -0.1651395309775835 0  -0.4504844339512096 -0.216941869558779 0  -0.4233620996141421 -0.2660160382576682 0  -0.3909157412340148 -0.3117449009293669 0  -0.3535533905932738 -0.3535533905932737 0  -0.3117449009293669 -0.3909157412340148 0  -0.2660160382576683 -0.4233620996141421 0  -0.2169418695587791 -0.4504844339512095 0  -0.1651395309775836 -0.4719416651541837 0  -0.1112604669781573 -0.4874639560909118 0  -0.05598223805165402 -0.4968561049466213 0  -9.184850993605148e-17 -0.5 0  2 -0.5 0  2 0 0  0.5 0 0  0.4968561049466213 0.05598223805165393 0  0.4874639560909118 0.1112604669781572 0  0.4719416651541838 0.1651395309775835 0  0.4504844339512096 0.2169418695587791 0  0.4233620996141421 0.2660160382576683 0  0.3909157412340149 0.3117449009293667 0  0.3535533905932738 0.3535533905932737 0  0.3117449009293668 0.3909157412340149 0  0.2660160382576683 0.4233620996141421 0  0.2169418695587791 0.4504844339512096 0  0.1651395309775837 0.4719416651541837 0  0.1112604669781572 0.4874639560909118 0  0.05598223805165384 0.4968561049466213 0  3.061616997868383e-17 0.5 0  0.1398708344106534 0.05418624992807294 0  0.15 0 0  0.1398708344106534 -0.05418624992807295 0  0.1108513375830988 -0.1010543465469837 0  0.06686075336648065 -0.1342744937032594 0  0.01384025391949536 -0.1493601264442552 0  -0.04104944851081246 -0.1442738464759228 0  -0.09039519545688858 -0.1197025840920358 0  -0.1275325703594421 -0.07896482443160337 0  -0.1474459649525853 -0.02756242767248552 0  -0.1474459649525853 0.02756242767248555 0  -0.1275325703594421 0.07896482443160341 0  -0.09039519545688844 0.1197025840920359 0  -0.04104944851081243 0.1442738464759228 0  0.0138402539194953 0.1493601264442552 0  0.06686075336648074 0.1342744937032593 0  0.1108513375830989 0.1010543465469836 0  -1 0.5 0  1 -0.5 0  -1.25 0 0  -0.5 0.5 0  1.25 0 0  0.4999999999999999 -0.5 0  -1.5 0.5 0  1.5 -0.5 0  -0.875 0 0  0.875 0 0  -1.625 0 0  1.625 0 0  0.6875 -0.2500000000000001 0  -0.6875 0.25 0  -2 0.25 0  1.75 -0.5 0  0.2499999999999999 -0.5 0  -0.3583969912126916 0.25 0  0.3749999999999999 -0.25 0  -1.0625 0.21875 0  1.0625 -0.21875 0  -1.75 0.5 0  -1.25 0.5 0  -1.375 0.25 0  1.4375 -0.21875 0  2 -0.25 0  1.25 -0.5 0  1.7375 -0.2375 0  -1.7375 0.2375 0  0.75 -0.5 0  -0.75 0.5 0  -0.25 0.5 0  -0.1570377317087672 0.3153742794659282 0  0.1249999999999999 -0.3338777090152827 0  -0.8826650943396226 0.3263561320754717 0  0.8826650943396227 -0.3263561320754717 0  1.25 -0.1897321428571428 0  1.4375 0 0  -1.4375 0 0  1.0625 0 0  -1.0625 0 0  -0.6875 0 0  0.6875 0 0  1.8125 0 0  -1.8125 0 0  0.3263011380546194 -0.06940056902730968 0  -1.554017857142857 0.1790178571428572 0  0.08847100915780901 0.3109433440851622 0  -0.2412983234264066 -0.2156373655531345 0  -1.625 0.3744047619047619 0  1.625 -0.3744047619047619 0  0.2743272717766799 0.1698562554772697 0  -0.3279338175957848 0.06764246763930631 0  -1.863068181818182 0.3630681818181818 0  2 -0.375 0  1.875 -0.5 0  -0.05442366733490933 -0.3203147637646457 0  1.321986607142857 -0.3448660714285714 0  1.125 -0.5 0  -1.209821428571429 0.3236607142857143 0  -0.5229484956063458 0.1781011282952406 0  0.9067445847815293 -0.1625224987586892 0  -0.8335714777578845 0.1642411083184135 0  -1.237063437253354 0.1627182813733228 0  -0.4947697009489606 0.3378596801347012 0  0.53125 -0.171875 0  0.5156249999999999 -0.3359375 0  -2 0.125 0  1.873225308641975 -0.1497685185185185 0  0.2341337966231563 -0.1911191776024666 0  -0.625 0.5 0  1.587453076345555 -0.2288757784711196 0  1.8125 -0.3654761904761905 0  -0.3326862624810256 -0.08869875963335262 0  -0.375 0.5 0  1.174048204529175 -0.319244854540162 0  -1.067618031042359 0.3674567846760797 0  -0.96875 0.109375 0  1.481463366596639 -0.3565498074229692 0  1.023503306098383 -0.3576535124663073 0  -0.2265388519390893 0.1866542405407749 0  0.625 -0.5 0  -1.852445652173913 0.1432065217391304 0  -1.375 0.5 0  -1.479101577239454 0.3541992113802732 0  0.2708871299591885 -0.3541935649795943 0  1.520204106978579 -0.109375 0  0.78125 -0.1026731411563172 0  -0.3125 0.3785994323952442 0  0.3749999999999999 -0.5 0  1.141568346088435 -0.109375 0  1.358431653911565 -0.109375 0  1.668712727161379 -0.1246887081867154 0  -1.673050595238095 0.1226339285714286 0  -1.34375 0 0  -1.431523109243698 0.1313182773109244 0  -0.7546231943577876 0.3660317014105531 0  -0.6233296454587935 0.3645528204344609 0  0.7546231943577878 -0.3660317014105531 0  0.6537002726710706 -0.125 0  -0.6441338591766993 0.125 0  1.375 -0.5 0  -2 0.375 0  -1.875 0.5 0  1.625 -0.5 0  -1.625 0.5 0  0.875 -0.5 0  -0.875 0.5 0  0.1249999999999999 -0.5 0  -0.125 0.5 0  2 -0.125 0  -1.125 0.5 0  -1.354082022940739 0.375 0  -0.03500388138134332 0.2732363193989585 0  0.3955099577726473 -0.3752808566622692 0  0.3596026196703111 0.0631070919012526 0  -0.0625 0.394061918116807 0  0.6342080192637126 -0.3582597885274255 0  -1.123666900137815 0.109375 0  -1.744588744588745 0.3803841991341991 0  0.2210084381421171 0.2925777566973838 0  0.8072251313743133 -0.2315819627814412 0  -0.1814335426834733 -0.3282792760620681 0  -0.9356634513979559 0.2218154628239019 0  0.4183753556420685 -0.1414382112841371 0  -0.1238894550978499 -0.2292394949250368 0  0.96875 0 0  1.013652292192466 -0.1102204462032291 0  -0.4393328341626322 0.09834605222123384 0  1.882206434331873 -0.2686982850037661 0  0.1426699461850768 0.2146575767791519 0  -1.886304127069339 0.251758104550396 0  0.2495743011762567 0.06264742837969955 0  -0.78125 0 0  0.04042933102838756 -0.2590839715717854 0  -1.53125 0 0  -0.5823692714154002 0.2663576540687616 0  -0.2594008044921133 0.2871583817002197 0  -0.9375 0.4157678007976423 0  0.9696186653311423 -0.2675997292662616 0  -0.7942971416386473 0.2646257048857303 0  0.06249999999999992 -0.4169388545076413 0  0.1874999999999999 -0.4169388545076413 0  -1.562839467699977 0.2864000626355251 0  -0.1875 0.4157529178973974 0  -0.1223698320396133 0.2179970721626365 0  1.770639498024741 -0.1399156735731578 0  0.9367002721196375 -0.4157324987180338 0  -1.90625 0 0  -0.2298618769854927 -0.08904896555277285 0  0.1397131066802196 -0.232031643549068 0  -0.4375 0.420861596936145 0  -0.3483554784186823 -0.1925292675214375 0  0.59375 0 0  -1.327632151430252 0.1057660692693074 0  -0.9830051201906395 0.3115204496273563 0  1.90625 0 0  1.236354269160391 -0.3993990952861421 0  -1.1875 0.4214935578661845 0  0.5625 -0.4247705455161483 0  -0.7349377422908023 0.1635199768201956 0  -1.583328550170068 0.08705835459183674 0  -1.640104497493491 0.2259991665335075 0  -1.467109316827997 0.2210671404637805 0  0.5896070530325394 -0.2690578560650788 0  0.3266472067106532 -0.167734762534917 0  -0.59375 0 0  -0.546875 0.08448914438556519 0  1.71875 0 0  1.156078290691277 -0.2031315651260504 0  1.337704613095238 -0.2433035714285714 0  1.236312294597949 -0.09486607142857142 0  0.1642123379155914 0.3701207892454864 0  0.2345507206108115 -0.04384512844718241 0  -0.4048861533022036 -0.02273791864794379 0  0.03798857341016919 0.3979165301900267 0  -0.4006523628802168 0.334179001454817 0  -0.1135990210174155 -0.393340785880617 0  1.906775738056482 -0.3598876272511091 0  1.720393990929705 -0.4044642857142857 0  -1.71875 0 0  1.15625 0 0  0.78125 0 0  1.53125 0 0  -0.96875 0 0  1.34375 0 0  -1.15625 0 0  1.142828909845958 -0.4078056758504979 0  0.40697192225457 -0.01923608979840619 0  -1.767708120728825 0.08966855818957545 0  -0.6882384924227143 0.4308047125515967 0  -0.3636785153797087 0.1553944795036722 0  -0.2291274285977749 0.08616080495998404 0  -0.281012338688557 -0.01202669255906096 0  0.3108677056378212 0.2586754570559801 0  -1.151751953043632 0.196872287087452 0  -0.5625 0.4330368698813529 0  0.6875 -0.4328910527173583 0  1.405021000845949 -0.3057191080886871 0  0.546875 -0.08025568181818182 0  0.3713523302229579 0.1599284134935842 0  -1.12196127795563 0.2911449911382941 0  -1.276991293863022 0.2522534749828799 0  1.255195006158927 -0.2798057638555942 0  -0.8388532729558951 0.4114132763440825 0  0.8388532729558953 -0.4114132763440825 0  -0.4557763550657601 0.2486174768248819 0  0.2049883534781638 -0.2934473685517857 0  0.3226059585583683 -0.4273378498573185 0  -1.426982449282418 0.4270508114904024 0  1.397702183984896 -0.4056170514003312 0  0.05467855045156804 0.2285245978493705 0  -0.272823163096586 -0.3046204408381326 0  -0.02656096412551515 -0.4126877256833236 0  -1.807235369718798 0.2933328120993839 0  0.1906985117418444 0.1399478964461678 0  -1.688085622354259 0.3115694793217502 0  1.659329587961023 -0.2879395206246994 0  -1.5625 0.437202380952381 0  1.546313524296827 -0.4210926184041992 0  -1.813279560389256 0.4363923695021056 0  -1.926524548924358 0.4265245489243581 0  -0.1751061200004134 -0.1578066000831913 0  0.2891187728554643 -0.268298186700636 0  0.4721679687499999 -0.2490234375 0  0.7276683718449491 -0.1720688736051095 0  0.4744973194747868 -0.4152356216385488 0  0.9322020604693165 -0.07914563824612769 0  -1.275602471792197 0.4154857864535745 0  -0.828125 0.07552171441918698 0  1.3125 -0.5 0  -1.931646474339171 0.178059096704675 0  -0.7167268019830385 0.08016211756451477 0  1.060414578698922 -0.4368616551407768 0  -1.6875 0.5 0  1.9375 -0.5 0  1.739833210773432 -0.3220974693894793 0  -2 0.3125 0  -1.207440692409131 0.07848980221212992 0  -0.04055821595704934 -0.2377097412335854 0  0.1922531441870086 -0.1190381071624572 0  1.509237778147088 -0.2717758217431455 0  0.8901922386429052 -0.2437760747352658 0  -1.498530569603453 0.07867879855510211 0  0.9849923856958628 -0.1870513965806273 0  1.515605916195201 -0.1906351698786736 0  1.439317880445072 -0.08458133750179306 0  1.932491348856277 -0.2050969650933771 0  1.828075655121533 -0.08087981225769847 0  1
[...]
<PointData  Vectors="f_39"> 
<DataArray  type="Float64"  Name="f_39"  NumberOfComponents="3" format="ascii">2.7934499666494144e+01 -3.2364014894840722e+01 0.0000000000000000e+00  1.5211856864245696e+00 -3.9635614423652892e+00 0.0000000000000000e+00  1.9614757749495047e+02 -1.0776072541079039e+02 0.0000000000000000e+00  1.7148576468518834e+02 -1.1914097069127122e+02 0.0000000000000000e+00  1.6114588782224359e+02 -1.1391915895492096e+02 0.0000000000000000e+00  1.4816973395604450e+02 -1.0629571656131978e+02 0.0000000000000000e+00  1.4460015964007982e+02 -9.7373399342854441e+01 0.0000000000000000e+00  1.4503400404564837e+02 -8.9962187260212261e+01 0.0000000000000000e+00  1.4494580467474404e+02 -8.4044255472458758e+01 0.0000000000000000e+00  1.4643274159033507e+02 -8.0062115710330758e+01 0.0000000000000000e+00  1.5028566797565426e+02 -7.0817727920892395e+01 0.0000000000000000e+00  1.5112327495127369e+02 -6.8041495549930801e+01 0.0000000000000000e+00  1.5344627754629744e+02 -6.3537765989095988e+01 0.0000000000000000e+00  1.5555305759421714e+02 -5.9296844593741568e+01 0.0000000000000000e+00  1.5739730244197605e+02 -5.6039048343275581e+01 0.0000000000000000e+00  1.6203629252475497e+02 -4.8318821324204698e+01 0.0000000000000000e+00  1.6718211803351915e+02 -4.7339055615893145e+01 0.0000000000000000e+00  2.3231488972996334e+02 6.1329678891199411e-02 0.0000000000000000e+00  2.3759899765414377e+02 -3.4688277896174280e-01 0.0000000000000000e+00  2.1301588678354705e+02 -1.1865917926711850e+02 0.0000000000000000e+00  1.8429021243436202e+02 -1.2925527379159436e+02 0.0000000000000000e+00  1.6767030868230819e+02 -1.2028157331568401e+02 0.0000000000000000e+00  1.6086656524337636e+02 -1.1321893463169718e+02 0.0000000000000000e+00  1.5405184338222594e+02 -1.0375188006389553e+02 0.0000000000000000e+00  1.5176587979820962e+02 -9.5228348913227990e+01 0.0000000000000000e+00  1.5433450807985682e+02 -8.7976598982668449e+01 0.0000000000000000e+00  1.5519966929101764e+02 -8.3733698055591177e+01 0.0000000000000000e+00  1.5666217526874706e+02 -7.8675271270327485e+01 0.0000000000000000e+00  1.5607793755908267e+02 -7.5841274094546691e+01 0.0000000000000000e+00  1.6083369540885758e+02 -6.8645812147851274e+01 0.0000000000000000e+00  1.6152897019864480e+02 -6.4902608377692431e+01 0.0000000000000000e+00  1.6530872411749007e+02 -6.0440863896699028e+01 0.0000000000000000e+00  1.6780850874894296e+02 -5.8420502744789232e+01 0.0000000000000000e+00  1.7447810399988106e+02 -5.4516758687375876e+01 0.0000000000000000e+00  1.7450424873715630e+02 -9.6095806616248069e+01 0.0000000000000000e+00  1.6936230136489067e+02 -8.8477216902001388e+01 0.0000000000000000e+00  1.6544619764374204e+02 -7.0586389650699246e+01 0.0000000000000000e+00  1.7013884958136993e+02 -5.7966755131103483e+01 0.0000000000000000e+00  1.8185894328908051e+02 -4.9868519895748406e+01 0.0000000000000000e+00  1.9242907674247226e+02 -5.3221578712743842e+01 0.0000000000000000e+00  1.9021988899796457e+02 -7.9174670803507013e+01 0.0000000000000000e+00  1.8157110335123892e+02 -9.1952509630309578e+01 0.0000000000000000e+00  1.6949307973660535e+02 -9.6723964848122904e+01 0.0000000000000000e+00  1.5668289522973492e+02 -9.1756977033574316e+01 0.0000000000000000e+00  1.5068826812416270e+02 -8.0458806239284016e+01 0.0000000000000000e+00  1.6204036627534049e+02 -6.1999978256176192e+01 0.0000000000000000e+00  1.7325728580152534e+02 -5.4063596001239297e+01 0.0000000000000000e+00  1.8722778700940339e+02 -5.3077904613297981e+01 0.0000000000000000e+00  1.9494620630371466e+02 -7.1452994558174296e+01 0.0000000000000000e+00  1.9220869131930036e+02 -7.7567787853339780e+01 0.0000000000000000e+00  1.8192677182767267e+02 -9.6076964908306294e+01 0.0000000000000000e+00  2.2978803941109086e+02 -9.8215101073890295e+01 0.0000000000000000e+00  2.2668430006488302e+02 -1.7671382896613945e+01 0.0000000000000000e+00  1.6405844582286662e+02 -1.1660499503547564e+02 0.0000000000000000e+00  2.0940509120140740e+02 -6.6467992350003939e+01 0.0000000000000000e+00  2.3949900226748971e+02 -1.1393974120306243e+01 0.0000000000000000e+00  2.0533106208418704e+02 -3.4230431231174016e+01 0.0000000000000000e+00  2.4580894912188614e+02 -2.0091482664403827e+02 0.0000000000000000e+00  2.3038964069675910e+02 -6.2852544854052983e+00 0.0000000000000000e+00  1.9154413045475471e+02 -8.2877851725240518e+01 0.0000000000000000e+00  2.4564031557366960e+02 -2.4705104392044529e+01 0.0000000000000000e+00  1.1551332979066383e+02 -1.8291504712169220e+02 0.0000000000000000e+00  2.3809373227073200e+02 -4.6462407843265456e+00 0.0000000000000000e+00  2.2901720276006304e+02 -3.8487041570059795e+01 0.0000000000000000e+00  2.0564573597074909e+02 -8.1996792721352932e+01 0.0000000000000000e+00  1.4691042007758179e+01 -1.4485977544773490e+01 0.0000000000000000e+00  2.3132019414636730e+02 -2.2572091797376399e+00 0.0000000000000000e+00  1.8677588585493240e+02 -3.8322453242598868e+01 0.0000000000000000e+00  1.9032426425756654e+02 -7.2967390964463775e+01 0.0000000000000000e+00  2.0105390743295450e+02 -5.7014167553415426e+01 0.0000000000000000e+00  2.0214811637074916e+02 -1.0737781907792244e+02 0.0000000000000000e+00  2.3550277801539673e+02 -1.7504268563826400e+01 0.0000000000000000e+00  2.6588640166719455e+02 -2.6771810126469751e+02 0.0000000000000000e+00  2.4165617833913549e+02 -1.2716974253506328e+02 0.0000000000000000e+00  1.9564146074705147e+02 -1.5219246660335918e+02 0.0000000000000000e+00  2.3540185407178578e+02 -8.0928398934062589e+00 0.0000000000000000e+00  2.3487073533070739e+02 -2.5257513711125479e-01 0.0000000000000000e+00  2.2922180778464582e+02 -1.1111508936395394e+01 0.0000000000000000e+00  2.3484648205077525e+02 -3.4277475103169421e+00 0.0000000000000000e+00  1.4828934481939402e+02 -2.5796008299826229e+02 0.0000000000000000e+00  2.1981799253949248e+02 -2.5116567345569639e+01 0.0000000000000000e+00  2.1863429799783583e+02 -8.1193492317409664e+01 0.0000000000000000e+00  1.9091595495413881e+02 -5.6102830539913995e+01 0.0000000000000000e+00  1.8353667743536639e+02 -6.1792385485082292e+01 0.0000000000000000e+00  1.8101126506141438e+02 -5.1727380123946581e+01 0.0000000000000000e+00  2.1222496367413598e+02 -9.1531352241946635e+01 0.0000000000000000e+00  2.2980815239151895e+02 -2.3962964782823857e+01 0.0000000000000000e+00  2.3570095793935536e+02 -1.2213667085379994e+01 0.0000000000000000e+00  2.3914358871645766e+02 -7.9289615417884676e+00 0.0000000000000000e+00  1.4276504842747471e+02 -1.4496116463100219e+02 0.0000000000000000e+00  2.4230721506291084e+02 -1.5229940533496855e+01 0.0000000000000000e+00  1.8020010080965366e+02 -9.5412057085428870e+01 0.0000000000000000e+00  2.0290365793339265e+02 -7.7626679828776631e+01 0.0000000000000000e+00  2.5311088138175353e+02 -3.9716154664748714e+01 0.0000000000000000e+00  2.3762694574449893e+02 -1.9152153009565354e+00 0.0000000000000000e+00  8.3601071330420638e+01 -2.1263487176878044e+02 0.0000000000000000e+00  1.9018319931907922e+02 -8.2354901586131319e+01 0.0000000000000000e+00  1.6439719720816726e+02 -1.8953027236158360e+02 0.0000000000000000e+00  1.7481778583646127e+02 -7.0635847692624750e+01 0.0000000000000000e+00  1.6127039647526155e+02 -8.4194954330681639e+01 0.0000000000000000e+00  2.1929928319199868e+02 -2.3483483142797562e+02 0.0000000000000000e+00  2.3275291600413740e+02 -4.9681924107758855e+00 0.0000000000000000e+00  1.7062314498006106e+02 -9.2217433965779065e+01 0.0000000000000000e+00  1.7679548175860822e+02 -8.6102730771276015e+01 0.0000000000000000e+00  1.6761804910687152e+02 -3.8963947811998088e+02 0.0000000000000000e+00  2.3341404073201940e+02 -3.0871832559948176e-01 0.0000000000000000e+00  2.3235767348535947e+02 -1.3455179012345839e+00 0.0000000000000000e+00  1.7246564960414312e+02 -6.2434854565259819e+01 0.0000000000000000e+00  2.3261632096292135e+02 -1.0369333655299583e+01 0.0000000000000000e+00  2.2812703897956095e+02 -1.4132212840449263e+01 0.0000000000000000e+00  2.1277571910023258e+02 -1.2663498547887512e+02 0.0000000000000000e+00  2.0000001439383428e+02 -8.2065274548694518e+01 0.0000000000000000e+00  2.3843230120437934e+02 -2.4675868319083580e+01 0.0000000000000000e+00  2.0150958009603235e+02 -8.7621042471224726e+01 0.0000000000000000e+00  1.8826100088559755e+02 -1.2862657426871047e+02 0.0000000000000000e+00  2.0218622409665784e+02 -7.2571109839272268e+01 0.0000000000000000e+00  2.2696729441299362e+02 -5.8160744639451330e+01 0.0000000000000000e+00  2.1121338533619368e+02 -4.3528837249991980e+01 0.0000000000000000e+00  8.4784999855409851e+00 -7.9565572417178005e+00 0.0000000000000000e+00  2.3610266390407358e+02 -1.5855653543447015e+00 0.0000000000000000e+00  1.8565975024193324e+02 -6.0900277882102742e+01 0.0000000000000000e+00  2.1468261188531372e+02 -7.4314188251765245e+01 0.0000000000000000e+00  2.3493094519717411e+02 -5.6274569100656988e+00 0.0000000000000000e+00  2.3324766769588325e+02 -2.2249712894018581e+00 0.0000000000000000e+00  1.6279193188696766e+02 -9.5935818747148147e+01 0.0000000000000000e+00  2.0001442402844793e+02 -6.0607335138008430e+01 0.0000000000000000e+00  2.3247873864306615e+02 -1.3968278830752507e+01 0.0000000000000000e+00  2.1664991454576716e+02 -1.0816869151748369e+02 0.0000000000000000e+00  1.9376024821640499e+02 -9.5050883170382136e+01 0.0000000000000000e+00  2.3276442677692913e+02 -7.3215366966428652e+00 0.0000000000000000e+00  2.3071904631384771e+02 -1.7940087074824437e+01 0.0000000000000000e+00  1.7749306127652068e+02 -6.8640555685990009e+01 0.0000000000000000e+00  2.1369292606207327e+02 -3.0163389206111511e+01 0.0000000000000000e+00  8.0216229484268197e+01 -2.5431994993267685e+02 0.0000000000000000e+00  2.4725817401557535e+02 -1.5377713320782138e+02 0.0000000000000000e+00  2.2025153180456007e+02 -1.8813347187392921e+02 0.0000000000000000e+00  1.9117133026080538e+02 -4.9514724019671959e+01 0.0000000000000000e+00  2.3692860204841546e+02 -6.5479947804675680e+00 0.0000000000000000e+00  2.4288121402139083e+02 -3.1981254737584077e+01 0.0000000000000000e+00  1.9173772814115978e+02 -6.3737514749186559e+01 0.0000000000000000e+00  1.9633409720409668e+02 -3.7573267958712819e+01 0.0000000000000000e+00  2.3852743147577769e+02 -1.4479585387558924e+01 0.0000000000000000e+00  2.3736896540883649e+02 -9.6525325401946294e+00 0.0000000000000000e+00  2.3638766008199698e+02 -4.3831516692619656e+00 0.0000000000000000e+00  1.3117960811687118e+02 -2.1545895634619617e+02 0.0000000000000000e+00  1.5433501253893854e+02 -1.3270496008329494e+02 0.0000000000000000e+00  1.6593879658931772e+02 -1.5944832226312522e+02 0.0000000000000000e+00  2.1204235444146002e+02 -8.2933372719438822e+01 0.0000000000000000e+00  2.0857573241559865e+02 -7.7336290243522612e+01 0.0000000000000000e+00  2.2376222188533251e+02 -2.9376852596375123e+01 0.0000000000000000e+00  2.3985074287324593e+02 -4.5037704165617761e+01 0.0000000000000000e+00  2.0421840724371418e+02 -8.2126142229074105e+01 0.0000000000000000e+00  2.3046291823861560e+02 -9.0325020185257276e+00 0.0000000000000000e+00  2.2229087383962458e+01 -2.2597934671404598e+01 0.0000000000000000e+00  1.9695688037569676e+02 -5.1631062572248254e+02 0.0000000000000000e+00  2.3078234130891815e+02 -4.5673077359456862e+00 0.0000000000000000e+00  2.5835890516261230e+02 -2.3911182464721188e+02 0.0000000000000000e+00  2.2363499068336552e+02 -2.0922927752121016e+01 0.0000000000000000e+00  2.1967375297806399e+02 -8.7345055840360743e+01 0.0000000000000000e+00  1.7665536475223053e+02 -4.0279195239683609e+01 0.0000000000000000e+00  1.8258278482204196e+02 -5.3972255249816534e+01 0.0000000000000000e+00  2.3631468116790973e+02 -3.1578248502947864e-01 0.0000000000000000e+00  2.3020807186492704e+02 -1.1547408926147151e+02 0.0000000000000000e+00  2.2484088674250825e+02 -1.5429830991764783e+02 0.0000000000000000e+00  1.8223857453134519e+02 -6.3067618892087808e+01 0.0000000000000000e+00  2.0071128930006273e+02 -4.4607077818838697e+01 0.0000000000000000e+00  1.7976426012261086e+02 -1.0109930033824511e+02 0.0000000000000000e+00  1.7958018578717571e+02 -5.9005936803554889e+01 0.0000000000000000e+00  2.1988367040285530e+02 -3.5823955238209145e+01 0.0000000000000000e+00  1.8575022983655793e+02 -1.0823438146146053e+02 0.0000000000000000e+00  2.2179707682706916e+02 -2.9749466057818688e+02 0.0000000000000000e+00  1.6730597467258494e+02 -7.9952681316682430e+01 0.0000000000000000e+00  2.3410144820910944e+02 -2.9756405770362008e+01 0.0000000000000000e+00  1.6079465086831223e+02 -7.0628096222576914e+01 0.0000000000000000e+00  2.0335761762391789e+02 -9.4269168966362741e+01 0.0000000000000000e+00  2.0962845810103903e+02 -7.2990062605591731e+01 0.0000000000000000e+00  1.7217199036491394e+02 -7.6314133752369017e+01 0.0000000000000000e+00  2.4495738038809259e+02 -2.0043276339717959e+01 0.0000000000000000e+00  2.4009602527902285e+02 -1.8862322470271820e+01 0.0000000000000000e+00  1.9126886322355847e+02 -8.9622209249467161e+01 0.0000000000000000e+00  2.3457521444944970e+02 -1.5593207695796001e+00 0.0000000000000000e+00  1.7880282283935256e+02 -8.1504123504458661e+01 0.0000000000000000e+00  8.6343494790466764e+01 -3.1730170053126852e+02 0.0000000000000000e+00  1.7551928948375385e+02 -9.2234262116285166e+01 0.0000000000000000e+00  1.9775087804141688e+02 -7.8777938638437320e+01 0.0000000000000000e+00  1.8125611281982069e+02 -5.7128142462107633e+01 0.0000000000000000e+00  1.3078259563719607e+02 -1.6916981283274160e+02 0.0000000000000000e+00  2.0346903851434189e+02 -7.8516791769364275e+01 0.0000000000000000e+00  1.8629351412508902e+02 -6.6819259965034192e+01 0.0000000000000000e+00  2.1991207303499641e+02 -9.4132932586896388e+01 0.0000000000000000e+00  2.3341007977897664e+02 -2.1285039473493960e+01 0.0000000000000000e+00  2.0650497391806800e+02 -8.6281850597733865e+01 0.0000000000000000e+00  1.7378234102732361e+02 -4.9190639847446334e+01 0.0000000000000000e+00  1.8396510555276973e+02 -4.4178215200772797e+01 0.0000000000000000e+00  1.9378569020475743e+02 -2.0737234122687397e+02 0.0000000000000000e+00  1.8650070743803403e+02 -5.7764375263261996e+01 0.0000000000000000e+00  1.7969010269115773e+02 -6.0690047084709654e+01 0.0000000000000000e+00  2.3641327760063868e+02 -2.9020076663997085e+00 0.0000000000000000e+00  2.2689902883782045e+02 -1.9917576559336819e+01 0.0000000000000000e+00  6.2440704982187434e+01 -2.0879955445826172e+02 0.0000000000000000e+00  1.6391499830085255e+02 -9.2297162641669900e+01 0.0000000000000000e+00  1.8170850804965590e+02 -5.4994752098301021e+01 0.0000000000000000e+00  2.0309141323280207e+02 -6.6022236710086574e+01 0.0000000000000000e+00  1.5480447131695789e+02 -9.2657472773928490e+01 0.0000000000000000e+00  2.6086454209914376e+02 -5.4882529253666057e+01 0.0000000000000000e+00  1.7036444272705609e+02 -1.3785370854829668e+02 0.0000000000000000e+00  2.1058208573144094e+02 -9.9038551442400660e+01 0.0000000000000000e+00  2.3748058409857001e+02 -8.7908769228571859e-01 0.0000000000000000e+00  2.3100918643902128e+02 -1.2306239004356712e+01 0.0000000000000000e+00  2.2629660893338698e+02 -1.2279422073302051e+02 0.0000000000000000e+00  2.1103998124168109e+02 -3.5470053363454944e+01 0.0000000000000000e+00  2.0377609254624431e+02 -8.3383195940831598e+01 0.0000000000000000e+00  1.3719020793981210e+02 -1.8763450272607702e+02 0.0000000000000000e+00  1.6031345177581662e+02 -2.2541166989472509e+02 0.0000000000000000e+00  1.8118249143605129e+02 -1.7692491916937129e+02 0.0000000000000000e+00  2.2216146343855866e+02 -4.4560919362415511e+01 0.0000000000000000e+00  1.9573509108587223e+02 -6.8277886302626257e+01 0.0000000000000000e+00  2.0884735298500047e+02 -8.2761154269185880e+01 0.0000000000000000e+00  2.0536584474390389e+02 -8.7759459015231513e+01 0.0000000000000000e+00  2.3791411869878928e+02 -3.5599247594307983e+00 0.0000000000000000e+00  2.3572282096015897e+02 -1.4740619276403443e+01 0.0000000000000000e+00  2.3460805647665595e+02 -1.0303943542039722e+01 0.0000000000000000e+00  2.3810768002033430e+02 -1.2104458453060698e+01 0.0000000000000000e+00  1.6701639399359649e+02 -7.1651785569825307e+01 0.0000000000000000e+00  1.7644417702497259e+02 -7.7731551780758039e+01 0.0000000000000000e+00  1.7418263143275399e+02 -1.0466428296902922e+02 0.0000000000000000e+00  1.7400941873417764e+02 -6.1423958621163713e+01 0.0000000000000000e+00  1.9639762674763185e+02 -6.8156531820031304e+01 0.0000000000000000e+00  1.6232175298639024e+02 -6.0720283718976205e+01 0.0000000000000000e+00  2.3352986001550380e+02 -1.0508735445228468e+00 0.0000000000000000e+00  2.3249535237666538e+02 -3.1099552704067603e+00 0.0000000000000000e+00  9.9733338134436551e+01 -2.0510208960574977e+02 0.0000000000000000e+00  2.4086594925336090e+02 -1.2600767410287427e+01 0.0000000000000000e+00  2.4969948539633558e+02 -3.0351147999256746e+01 0.0000000000000000e+00  2.3843274797863265e+02 -6.0404146317445591e+00 0.0000000000000000e+00  1.8620681630144020e+02 -8.9991940498648361e+01 0.0000000000000000e+00  2.3909787348561744e+02 -9.6040070546208849e+00 0.0000000000000000e+00  1.7047055224963194e+02 -1.0388700605902919e+02 0.0000000000000000e+00  2.3033109875940255e+02 -1.4054025758965381e+01 0.0000000000000000e+00  2.0356725310336975e+02 -9.9286223599048370e+01 0.0000000000000000e+00  1.0364426012777579e+02 -2.2552434352459974e+02 0.0000000000000000e+00  2.1368381487905327e+02 -7.8438324903143965e+01 0.0000000000000000e+00  1.8585495815140797e+02 -7.9868589827420081e+01 0.0000000000000000e+00  1.6818690064389628e+02 -7.5536096853820027e+01 0.0000000000000000e+00  1.6642414112945403e+02 -9.0993451392820077e+01 0.0000000000000000e+00  1.6093947498368027e+02 -8.8493628680522548e+01 0.0000000000000000e+00  1.9556602305342639e+02 -1.1731065794552352e+02 0.0000000000000000e+00  2.0912645468492366e+02 -7.2282342880324023e+01 0.0000000000000000e+00  2.1917789902591971e+02 -2.9370606299508719e+01 0.0000000000000000e+00  2.3338010622137074e+02 -9.1400145197247404e+00 0.0000000000000000e+00  2.4072828193289769e+02 -7.1941526295322262e+01 0.0000000000000000e+00  1.6772640587383981e+02 -1.0083352146990700e+02 0.0000000000000000e+00  2.0850157392294668e+02 -1.1465993359029331e+02 0.0000000000000000e+00  1.9983151045404267e+02 -1.3898973874828090e+02 0.0000000000000000e+00  2.3381454113750587e+02 -1.2099269826318093e+01 0.0000000000000000e+00  2.1623753792385477e+02 -8.5886407117422863e+01 0.0000000000000000e+00  2.2515563229883094e+02 -2.3965549223249408e+01 0.0000000000000000e+00  1.9584045824650670e+02 -7.6944120398687232e+01 0.0000000000000000e+00  1.8708943807735733e+02 -5.2886369876087443e+01 0.0000000000000000e+00  1.9363291516235859e+02 -4.3200953133273089e+01 0.0000000000000000e+00  2.3933538939851425e+02 -1.7275202384501858e+02 0.0000000000000000e+00  2.3155973328100558e+02 -8.8409584586857424e+00 0.0000000000000000e+00  1.8447684225514442e+02 -7.2613778179766570e+01 0.0000000000000000e+00  1.5339415093586297e+02 -7.8131560149056384e+01 0.0000000000000000e+00  1.6877666204916861e+02 -5.4364425414020836e+01 0.0000000000000000e+00  1.5262470470293593e+02 -3.0716448327421676e+02 0.0000000000000000e+00  1.7726103780404523e+02 -9.0425141484616717e+01 0.0000000000000000e+00  1.8691958881801972e+02 -2.5494073634535195e+02 0.0000000000000000e+00  2.3393593782505101e+02 -4.3915245084975219e+00 0.0000000000000000e+00  2.4138291548448484e+02 -2.1119720779947625e+02 0.0000000000000000e+00  2.3191552205168941e+02 -6.1886898566411839e+00 0.0000000000000000e+00  2.6986409322916978e+02 -3.6262080351170096e+02 0.0000000000000000e+00  1.6904375781483444e+02 -4.8363793053123561e+02 0.0000000000000000e+00  1.6943355063738557e+02 -8.9060070286216927e+01 0.0000000000000000e+00  1.9133813523562412e+02 -5.4917644552909714e+01 0.0000000000000000e+00  2.1163237436388005e+02 -5.4341113303736769e+01 0.0000000000000000e+00  2.3645599124613076e+02 -3.7657471988986273e+01 0.0000000000000000e+00  2.0582689670143097e+02 -3.9391775512496046e+01 0.0000000000000000e+00  2.4276638012584058e+02 -2.2715134795061058e+01 0.0000000000000000e+00  2.2973695290539519e+02 -1.3777871581221734e+02 0.0000000000000000e+00  1.97444938494