<?xml version="1.0"?>
<VTKFile type="UnstructuredGrid"  version="0.1"  >
<UnstructuredGrid>
<Piece  NumberOfPoints="1981" NumberOfCells="3668">
<Points>
<DataArray  type="Float64"  NumberOfComponents="3"  format="ascii">-2 0.5 0  -2 0 0  -0.5 0 0  -0.4968561049466213 -0.05598223805165387 0  -0.4874639560909119 -0.1112604669781569 0  -0.4719416651541838 -0.1651395309775835 0  -0.4504844339512096 -0.216941869558779 0  -0.4233620996141421 -0.2660160382576682 0  -0.3909157412340148 -0.3117449009293669 0  -0.3535533905932738 -0.3535533905932737 0  -0.3117449009293669 -0.3909157412340148 0  -0.2660160382576683 -0.4233620996141421 0  -0.2169418695587791 -0.4504844339512095 0  -0.1651395309775836 -0.4719416651541837 0  -0.1112604669781573 -0.4874639560909118 0  -0.05598223805165402 -0.4968561049466213 0  -9.184850993605148e-17 -0.5 0  2 -0.5 0  2 0 0  0.5 0 0  0.4968561049466213 0.05598223805165393 0  0.4874639560909118 0.1112604669781572 0  0.4719416651541838 0.1651395309775835 0  0.4504844339512096 0.2169418695587791 0  0.4233620996141421 0.2660160382576683 0  0.3909157412340149 0.3117449009293667 0  0.3535533905932738 0.3535533905932737 0  0.3117449009293668 0.3909157412340149 0  0.2660160382576683 0.4233620996141421 0  0.2169418695587791 0.4504844339512096 0  0.1651395309775837 0.4719416651541837 0  0.1112604669781572 0.4874639560909118 0  0.05598223805165384 0.4968561049466213 0  3.061616997868383e-17 0.5 0  0.1398708344106534 0.05418624992807294 0  0.15 0 0  0.1398708344106534 -0.05418624992807295 0  0.1108513375830988 -0.1010543465469837 0  0.06686075336648065 -0.1342744937032594 0  0.01384025391949536 -0.1493601264442552 0  -0.04104944851081246 -0.1442738464759228 0  -0.09039519545688858 -0.1197025840920358 0  -0.1275325703594421 -0.07896482443160337 0  -0.1474459649525853 -0.02756242767248552 0  -0.1474459649525853 0.02756242767248555 0  -0.1275325703594421 0.07896482443160341 0  -0.09039519545688844 0.1197025840920359 0  -0.04104944851081243 0.1442738464759228 0  0.0138402539194953 0.1493601264442552 0  0.06686075336648074 0.1342744937032593 0  0.1108513375830989 0.1010543465469836 0  -1 0.5 0  1 -0.5 0  -1.25 0 0  -0.5 0.5 0  1.25 0 0  0.4999999999999999 -0.5 0  -1.5 0.5 0  1.5 -0.5 0  -0.875 0 0  0.875 0 0  -1.625 0 0  1.625 0 0  0.6875 -0.2500000000000001 0  -0.6875 0.25 0  -2 0.25 0  1.75 -0.5 0  0.2499999999999999 -0.5 0  -0.3583969912126916 0.25 0  0.3749999999999999 -0.25 0  -1.0625 0.21875 0  1.0625 -0.21875 0  -1.75 0.5 0  -1.25 0.5 0  -1.375 0.25 0  1.4375 -0.21875 0  2 -0.25 0  1.25 -0.5 0  1.7375 -0.2375 0  -1.7375 0.2375 0  0.75 -0.5 0  -0.75 0.5 0  -0.25 0.5 0  -0.1570377317087672 0.3153742794659282 0  0.1249999999999999 -0.3338777090152827 0  -0.8826650943396226 0.3263561320754717 0  0.8826650943396227 -0.3263561320754717 0  1.25 -0.1897321428571428 0  1.4375 0 0  -1.4375 0 0  1.0625 0 0  -1.0625 0 0  -0.6875 0 0  0.6875 0 0  1.8125 0 0  -1.8125 0 0  0.3263011380546194 -0.06940056902730968 0  -1.554017857142857 0.1790178571428572 0  0.08847100915780901 0.3109433440851622 0  -0.2412983234264066 -0.2156373655531345 0  -1.625 0.3744047619047619 0  1.625 -0.3744047619047619 0  0.2743272717766799 0.1698562554772697 0  -0.3279338175957848 0.06764246763930631 0  -1.863068181818182 0.3630681818181818 0  2 -0.375 0  1.875 -0.5 0  -0.05442366733490933 -0.3203147637646457 0  1.321986607142857 -0.3448660714285714 0  1.125 -0.5 0  -1.209821428571429 0.3236607142857143 0  -0.5229484956063458 0.1781011282952406 0  0.9067445847815293 -0.1625224987586892 0  -0.8335714777578845 0.1642411083184135 0  -1.237063437253354 0.1627182813733228 0  -0.4947697009489606 0.3378596801347012 0  0.53125 -0.171875 0  0.5156249999999999 -0.3359375 0  -2 0.125 0  1.873225308641975 -0.1497685185185185 0  0.2341337966231563 -0.1911191776024666 0  -0.625 0.5 0  1.587453076345555 -0.2288757784711196 0  1.8125 -0.3654761904761905 0  -0.3326862624810256 -0.08869875963335262 0  -0.375 0.5 0  1.174048204529175 -0.319244854540162 0  -1.067618031042359 0.3674567846760797 0  -0.96875 0.109375 0  1.481463366596639 -0.3565498074229692 0  1.023503306098383 -0.3576535124663073 0  -0.2265388519390893 0.1866542405407749 0  0.625 -0.5 0  -1.852445652173913 0.1432065217391304 0  -1.375 0.5 0  -1.479101577239454 0.3541992113802732 0  0.2708871299591885 -0.3541935649795943 0  1.520204106978579 -0.109375 0  0.78125 -0.1026731411563172 0  -0.3125 0.3785994323952442 0  0.3749999999999999 -0.5 0  1.141568346088435 -0.109375 0  1.358431653911565 -0.109375 0  1.668712727161379 -0.1246887081867154 0  -1.673050595238095 0.1226339285714286 0  -1.34375 0 0  -1.431523109243698 0.1313182773109244 0  -0.7546231943577876 0.3660317014105531 0  -0.6233296454587935 0.3645528204344609 0  0.7546231943577878 -0.3660317014105531 0  0.6537002726710706 -0.125 0  -0.6441338591766993 0.125 0  1.375 -0.5 0  -2 0.375 0  -1.875 0.5 0  1.625 -0.5 0  -1.625 0.5 0  0.875 -0.5 0  -0.875 0.5 0  0.1249999999999999 -0.5 0  -0.125 0.5 0  2 -0.125 0  -1.125 0.5 0  -1.354082022940739 0.375 0  -0.03500388138134332 0.2732363193989585 0  0.3955099577726473 -0.3752808566622692 0  0.3596026196703111 0.0631070919012526 0  -0.0625 0.394061918116807 0  0.6342080192637126 -0.3582597885274255 0  -1.123666900137815 0.109375 0  -1.744588744588745 0.3803841991341991 0  0.2210084381421171 0.2925777566973838 0  0.8072251313743133 -0.2315819627814412 0  -0.1814335426834733 -0.3282792760620681 0  -0.9356634513979559 0.2218154628239019 0  0.4183753556420685 -0.1414382112841371 0  -0.1238894550978499 -0.2292394949250368 0  0.96875 0 0  1.013652292192466 -0.1102204462032291 0  -0.4393328341626322 0.09834605222123384 0  1.882206434331873 -0.2686982850037661 0  0.1426699461850768 0.2146575767791519 0  -1.886304127069339 0.251758104550396 0  0.2495743011762567 0.06264742837969955 0  -0.78125 0 0  0.04042933102838756 -0.2590839715717854 0  -1.53125 0 0  -0.5823692714154002 0.2663576540687616 0  -0.2594008044921133 0.2871583817002197 0  -0.9375 0.4157678007976423 0  0.9696186653311423 -0.2675997292662616 0  -0.7942971416386473 0.2646257048857303 0  0.06249999999999992 -0.4169388545076413 0  0.1874999999999999 -0.4169388545076413 0  -1.562839467699977 0.2864000626355251 0  -0.1875 0.4157529178973974 0  -0.1223698320396133 0.2179970721626365 0  1.770639498024741 -0.1399156735731578 0  0.9367002721196375 -0.4157324987180338 0  -1.90625 0 0  -0.2298618769854927 -0.08904896555277285 0  0.1397131066802196 -0.232031643549068 0  -0.4375 0.420861596936145 0  -0.3483554784186823 -0.1925292675214375 0  0.59375 0 0  -1.327632151430252 0.1057660692693074 0  -0.9830051201906395 0.3115204496273563 0  1.90625 0 0  1.236354269160391 -0.3993990952861421 0  -1.1875 0.4214935578661845 0  0.5625 -0.4247705455161483 0  -0.7349377422908023 0.1635199768201956 0  -1.583328550170068 0.08705835459183674 0  -1.640104497493491 0.2259991665335075 0  -1.467109316827997 0.2210671404637805 0  0.5896070530325394 -0.2690578560650788 0  0.3266472067106532 -0.167734762534917 0  -0.59375 0 0  -0.546875 0.08448914438556519 0  1.71875 0 0  1.156078290691277 -0.2031315651260504 0  1.337704613095238 -0.2433035714285714 0  1.236312294597949 -0.09486607142857142 0  0.1642123379155914 0.3701207892454864 0  0.2345507206108115 -0.04384512844718241 0  -0.4048861533022036 -0.02273791864794379 0  0.03798857341016919 0.3979165301900267 0  -0.4006523628802168 0.334179001454817 0  -0.1135990210174155 -0.393340785880617 0  1.906775738056482 -0.3598876272511091 0  1.720393990929705 -0.4044642857142857 0  -1.71875 0 0  1.15625 0 0  0.78125 0 0  1.53125 0 0  -0.96875 0 0  1.34375 0 0  -1.15625 0 0  1.142828909845958 -0.4078056758504979 0  0.40697192225457 -0.01923608979840619 0  -1.767708120728825 0.08966855818957545 0  -0.6882384924227143 0.4308047125515967 0  -0.3636785153797087 0.1553944795036722 0  -0.2291274285977749 0.08616080495998404 0  -0.281012338688557 -0.01202669255906096 0  0.3108677056378212 0.2586754570559801 0  -1.151751953043632 0.196872287087452 0  -0.5625 0.4330368698813529 0  0.6875 -0.4328910527173583 0  1.405021000845949 -0.3057191080886871 0  0.546875 -0.08025568181818182 0  0.3713523302229579 0.1599284134935842 0  -1.12196127795563 0.2911449911382941 0  -1.276991293863022 0.2522534749828799 0  1.255195006158927 -0.2798057638555942 0  -0.8388532729558951 0.4114132763440825 0  0.8388532729558953 -0.4114132763440825 0  -0.4557763550657601 0.2486174768248819 0  0.2049883534781638 -0.2934473685517857 0  0.3226059585583683 -0.4273378498573185 0  -1.426982449282418 0.4270508114904024 0  1.397702183984896 -0.4056170514003312 0  0.05467855045156804 0.2285245978493705 0  -0.272823163096586 -0.3046204408381326 0  -0.02656096412551515 -0.4126877256833236 0  -1.807235369718798 0.2933328120993839 0  0.1906985117418444 0.1399478964461678 0  -1.688085622354259 0.3115694793217502 0  1.659329587961023 -0.2879395206246994 0  -1.5625 0.437202380952381 0  1.546313524296827 -0.4210926184041992 0  -1.813279560389256 0.4363923695021056 0  -1.926524548924358 0.4265245489243581 0  -0.1751061200004134 -0.1578066000831913 0  0.2891187728554643 -0.268298186700636 0  0.4721679687499999 -0.2490234375 0  0.7276683718449491 -0.1720688736051095 0  0.4744973194747868 -0.4152356216385488 0  0.9322020604693165 -0.07914563824612769 0  -1.275602471792197 0.4154857864535745 0  -0.828125 0.07552171441918698 0  1.3125 -0.5 0  -1.931646474339171 0.178059096704675 0  -0.7167268019830385 0.08016211756451477 0  1.060414578698922 -0.4368616551407768 0  -1.6875 0.5 0  1.9375 -0.5 0  1.739833210773432 -0.3220974693894793 0  -2 0.3125 0  -1.207440692409131 0.07848980221212992 0  -0.04055821595704934 -0.2377097412335854 0  0.1922531441870086 -0.1190381071624572 0  1.509237778147088 -0.2717758217431455 0  0.8901922386429052 -0.2437760747352658 0  -1.498530569603453 0.07867879855510211 0  0.9849923856958628 -0.1870513965806273 0  1.515605916195201 -0.1906351698786736 0  1.439317880445072 -0.08458133750179306 0  1.932491348856277 -0.2050969650933771 0  1.828075655121533 -0.08087981225769847 0  1
[...]
<PointData  Vectors="f_39"> 
<DataArray  type="Float64"  Name="f_39"  NumberOfComponents="3" format="ascii">2.4229144089224562e+01 -6.4613184838940485e-01 0.0000000000000000e+00  3.8541419714960279e-02 1.5173307952516543e-01 0.0000000000000000e+00  1.1581426176981974e+01 -3.7262240156359585e+00 0.0000000000000000e+00  1.1481469114577367e+01 -3.9734235688050257e+00 0.0000000000000000e+00  1.1521676667609983e+01 -4.0319427179864906e+00 0.0000000000000000e+00  1.1454620329269497e+01 -4.7390598970198816e+00 0.0000000000000000e+00  1.1077410303370442e+01 -5.0451949131738232e+00 0.0000000000000000e+00  1.0383813574483773e+01 -5.1354180082386165e+00 0.0000000000000000e+00  1.0028605844710684e+01 -5.0595615820700663e+00 0.0000000000000000e+00  9.6993449311151512e+00 -4.9809811138736100e+00 0.0000000000000000e+00  9.3437621808493994e+00 -4.6682827063858809e+00 0.0000000000000000e+00  9.2193059781432325e+00 -4.5172147391170467e+00 0.0000000000000000e+00  9.1658671623964114e+00 -4.4156947047251904e+00 0.0000000000000000e+00  9.1070010815415348e+00 -4.3005183729695737e+00 0.0000000000000000e+00  9.0960718045008377e+00 -4.2420389016682511e+00 0.0000000000000000e+00  9.0831234953513942e+00 -4.0940083266419380e+00 0.0000000000000000e+00  9.1224086376206586e+00 -4.0132737704010433e+00 0.0000000000000000e+00  1.2042150685185836e+01 -1.0946222544063985e-03 0.0000000000000000e+00  1.2096758171276308e+01 -1.0980221363249628e-03 0.0000000000000000e+00  1.1405280107034658e+01 -3.5830418536179969e+00 0.0000000000000000e+00  1.1787377093356953e+01 -3.8842405341214050e+00 0.0000000000000000e+00  1.1768403324418301e+01 -4.2917805514457763e+00 0.0000000000000000e+00  1.1719274407107381e+01 -4.7720213479113536e+00 0.0000000000000000e+00  1.0990985040652061e+01 -5.3237874895226227e+00 0.0000000000000000e+00  1.0271911743569518e+01 -5.3812866131542680e+00 0.0000000000000000e+00  9.6847075935852747e+00 -5.1741736079418690e+00 0.0000000000000000e+00  9.5245609182774533e+00 -5.0924954848413133e+00 0.0000000000000000e+00  9.2314695587833118e+00 -4.8889366804057923e+00 0.0000000000000000e+00  9.0270126521682368e+00 -4.7944464258221000e+00 0.0000000000000000e+00  8.8566302483136710e+00 -4.4363010816035526e+00 0.0000000000000000e+00  8.7765173408277519e+00 -4.2461255423975324e+00 0.0000000000000000e+00  8.8093912377717558e+00 -4.0448872955408284e+00 0.0000000000000000e+00  8.8496282896433218e+00 -3.9380218376039533e+00 0.0000000000000000e+00  9.0157225396597749e+00 -3.7516687270492111e+00 0.0000000000000000e+00  1.0634262195289912e+01 -2.5702346499723299e+00 0.0000000000000000e+00  1.1643553324559061e+01 -3.1172641709029896e+00 0.0000000000000000e+00  1.1928895324625508e+01 -4.2957336026450248e+00 0.0000000000000000e+00  1.1380871893556760e+01 -5.2114332706784410e+00 0.0000000000000000e+00  9.9631290837659368e+00 -5.8650173491860444e+00 0.0000000000000000e+00  8.8297395656402191e+00 -5.2055619398350430e+00 0.0000000000000000e+00  8.3000892320461901e+00 -3.6725793616204250e+00 0.0000000000000000e+00  9.0505484687820452e+00 -2.8172149873710919e+00 0.0000000000000000e+00  1.0072937380488606e+01 -2.4920911686595297e+00 0.0000000000000000e+00  1.1559992597990258e+01 -2.7821554793307790e+00 0.0000000000000000e+00  1.2344062622974741e+01 -3.6913253955517935e+00 0.0000000000000000e+00  1.1450024825239650e+01 -5.1769188486780910e+00 0.0000000000000000e+00  1.0223606032619445e+01 -5.6446512920799918e+00 0.0000000000000000e+00  8.9047759605098609e+00 -5.2600709283554501e+00 0.0000000000000000e+00  8.7639604114595624e+00 -4.1396492521143688e+00 0.0000000000000000e+00  8.7274114209517553e+00 -3.8882032724334521e+00 0.0000000000000000e+00  9.7447149399686719e+00 -2.6225535472501389e+00 0.0000000000000000e+00  1.2683411330886987e+01 -1.0716367140704839e+00 0.0000000000000000e+00  1.1305213710668365e+01 -7.9609083581238982e-01 0.0000000000000000e+00  1.1833258100228941e+01 -1.3860010960131834e+00 0.0000000000000000e+00  1.0576526799380257e+01 -2.5095354868197806e+00 0.0000000000000000e+00  1.2421024612676135e+01 -3.0780725728292962e-01 0.0000000000000000e+00  1.0097692416300571e+01 -2.5505437064228795e+00 0.0000000000000000e+00  1.6800395691748136e+01 -3.5785435342486482e+00 0.0000000000000000e+00  1.1934114852638395e+01 -8.2829436689990224e-02 0.0000000000000000e+00  1.3663718580962762e+01 -2.2667439866367247e+00 0.0000000000000000e+00  1.3107898785653521e+01 -1.8646133324957685e+00 0.0000000000000000e+00  7.2176702910120571e+00 -6.7878775097178288e+00 0.0000000000000000e+00  1.2145158252517614e+01 -4.5312031595422686e-02 0.0000000000000000e+00  1.1367826169880201e+01 -2.4813761318042045e+00 0.0000000000000000e+00  1.1963188077041046e+01 -2.5907143952953779e+00 0.0000000000000000e+00  1.3601259158364917e+01 -3.9869583239104850e-01 0.0000000000000000e+00  1.2019389888957170e+01 -1.8348266496428650e-02 0.0000000000000000e+00  9.7003156943024944e+00 -3.3041888545553135e+00 0.0000000000000000e+00  1.0799869389653184e+01 -3.4427254146150350e+00 0.0000000000000000e+00  1.0626507929395338e+01 -3.4380862269662251e+00 0.0000000000000000e+00  1.2862183409971246e+01 -1.7277375282335028e+00 0.0000000000000000e+00  1.2095973857407609e+01 -9.0915258859846737e-01 0.0000000000000000e+00  2.1237251452597565e+01 -8.4086739673350159e+00 0.0000000000000000e+00  1.4083438430547822e+01 -1.3792228114411356e+00 0.0000000000000000e+00  1.2969170418987638e+01 -3.3171793324046561e+00 0.0000000000000000e+00  1.2099815899059262e+01 -1.9429403948710344e-01 0.0000000000000000e+00  1.2067587467308174e+01 -3.3503742731205667e-03 0.0000000000000000e+00  1.1722974358449596e+01 -2.8731699573405867e-01 0.0000000000000000e+00  1.2069640448704700e+01 -5.0073573895895632e-02 0.0000000000000000e+00  1.3125501378301749e+01 -1.1358999243847434e+01 0.0000000000000000e+00  1.0676690763369487e+01 -1.6385243786140005e+00 0.0000000000000000e+00  1.1499924722582110e+01 -1.4615512611023567e+00 0.0000000000000000e+00  9.7727282890656770e+00 -2.9428682516072784e+00 0.0000000000000000e+00  9.8808599920359104e+00 -3.8415424268474050e+00 0.0000000000000000e+00  9.6924985135007606e+00 -4.0870616682258145e+00 0.0000000000000000e+00  1.2388100295544453e+01 -1.6872290301752126e+00 0.0000000000000000e+00  1.1530834695125693e+01 -1.4214834672912897e+00 0.0000000000000000e+00  1.2137170741709792e+01 -4.3825300463604994e-01 0.0000000000000000e+00  1.2244689565712019e+01 -1.2243991493988203e-01 0.0000000000000000e+00  1.0045788303197682e+01 -2.7242822532341529e+00 0.0000000000000000e+00  1.2791160956227401e+01 -6.7599645462539826e-01 0.0000000000000000e+00  1.3064343540990617e+01 -1.2280875256153045e+00 0.0000000000000000e+00  1.3127892089109114e+01 -4.0495025494464159e+00 0.0000000000000000e+00  1.2291903849943083e+01 -3.6483723837700164e+00 0.0000000000000000e+00  1.2106850271632791e+01 -1.3291180578004956e-02 0.0000000000000000e+00  5.9102462243423064e+00 -1.3068733809090700e+01 0.0000000000000000e+00  1.1109240601049974e+01 -3.7490531916872181e+00 0.0000000000000000e+00  1.1586493038401821e+01 -5.9137410951920479e+00 0.0000000000000000e+00  9.1446018111430174e+00 -4.1028367077494341e+00 0.0000000000000000e+00  9.9324574349614245e+00 -4.0533201258236957e+00 0.0000000000000000e+00  1.6209444289914877e+01 -7.1099353889013868e+00 0.0000000000000000e+00  1.2020333153504792e+01 -7.7723106119154811e-02 0.0000000000000000e+00  1.0227555188310690e+01 -4.0795213180889620e+00 0.0000000000000000e+00  1.1208619892802448e+01 -3.8099858645449998e+00 0.0000000000000000e+00  1.9004642187389397e+01 -1.6071149174872424e+01 0.0000000000000000e+00  1.2049189701911947e+01 -3.9883465351592175e-03 0.0000000000000000e+00  1.2036533409443335e+01 -8.5413855677269543e-03 0.0000000000000000e+00  9.1918639474709956e+00 -4.1693522333781763e+00 0.0000000000000000e+00  1.1942928201743650e+01 -2.9239515514629677e-01 0.0000000000000000e+00  1.1541576760339648e+01 -4.9299302526603822e-01 0.0000000000000000e+00  1.3250542572392053e+01 -1.9589129372875507e+00 0.0000000000000000e+00  1.1443556874734572e+01 -3.2818200507440127e+00 0.0000000000000000e+00  1.2294145288247108e+01 -1.6019385111161044e+00 0.0000000000000000e+00  1.2789377287868593e+01 -2.3174424779914560e+00 0.0000000000000000e+00  1.2526679554006943e+01 -2.1235255422326467e+00 0.0000000000000000e+00  1.0974640572088662e+01 -2.7935564384615188e+00 0.0000000000000000e+00  1.1173700599999290e+01 -3.1275893112995248e+00 0.0000000000000000e+00  1.0577676221713880e+01 -2.8213995096739932e+00 0.0000000000000000e+00  7.2085781205809081e+00 -1.5198635762901019e-01 0.0000000000000000e+00  1.2085035808738439e+01 -1.7832148842828677e-02 0.0000000000000000e+00  1.0622602867276047e+01 -4.1142328346173977e+00 0.0000000000000000e+00  1.0904260694641033e+01 -1.9757537090820432e+00 0.0000000000000000e+00  1.2077936759321727e+01 -9.9153654958782783e-02 0.0000000000000000e+00  1.2042861324872861e+01 -2.4998119421683583e-02 0.0000000000000000e+00  1.0977127744671519e+01 -3.9257531761965252e+00 0.0000000000000000e+00  1.0296582004524110e+01 -2.7224529579086512e+00 0.0000000000000000e+00  1.1881524717686100e+01 -5.6426686502608137e-01 0.0000000000000000e+00  1.2952980052814162e+01 -1.5004565137564816e+00 0.0000000000000000e+00  1.3099457081980034e+01 -1.7782585083462674e+00 0.0000000000000000e+00  1.1989643491704689e+01 -1.4869784662872484e-01 0.0000000000000000e+00  1.1668248086345134e+01 -8.9701792861095775e-01 0.0000000000000000e+00  1.0724979345373391e+01 -4.1907643731582249e+00 0.0000000000000000e+00  1.0356869428376148e+01 -2.1028161515035597e+00 0.0000000000000000e+00  9.1257231601867748e+00 -1.5181239563595430e+01 0.0000000000000000e+00  1.5221477571142094e+01 -2.0778612483133010e+00 0.0000000000000000e+00  1.4820292184585599e+01 -4.3240756534528719e+00 0.0000000000000000e+00  1.0098621814052017e+01 -3.5994883531909951e+00 0.0000000000000000e+00  1.2143264187487025e+01 -1.1466044709532290e-01 0.0000000000000000e+00  1.2391277837871995e+01 -2.4238411003773721e+00 0.0000000000000000e+00  1.0280768829881932e+01 -3.2009732916178986e+00 0.0000000000000000e+00  9.9142643379001747e+00 -3.0793548235412516e+00 0.0000000000000000e+00  1.2393890819111554e+01 -6.0958800957492876e-01 0.0000000000000000e+00  1.2227374306251978e+01 -2.5013919442474986e-01 0.0000000000000000e+00  1.2106878505718857e+01 -6.1560556053063667e-02 0.0000000000000000e+00  9.8392626192002854e+00 -9.1310117992413318e+00 0.0000000000000000e+00  1.0925454314869818e+01 -2.0706891367181286e+00 0.0000000000000000e+00  1.1266904323586626e+01 -3.6789999181999464e+00 0.0000000000000000e+00  1.1804224046545560e+01 -1.8906960626237288e+00 0.0000000000000000e+00  1.1307280592750246e+01 -2.3767513174968795e+00 0.0000000000000000e+00  1.1078926828071374e+01 -1.8868414186721167e+00 0.0000000000000000e+00  1.1675015500457553e+01 -2.9684326774040488e+00 0.0000000000000000e+00  1.2139371249228113e+01 -3.3537409943958174e+00 0.0000000000000000e+00  1.1835600517265059e+01 -1.7370697484769385e-01 0.0000000000000000e+00  1.9199176200081379e+01 -5.7250210655280676e-01 0.0000000000000000e+00  2.4566520579879899e+01 -1.5252936534881298e+01 0.0000000000000000e+00  1.1983272729272807e+01 -4.6924482071337634e-02 0.0000000000000000e+00  1.8516273907565928e+01 -5.7707615195841671e+00 0.0000000000000000e+00  1.0986963631028834e+01 -1.1262343340468708e+00 0.0000000000000000e+00  1.2125507687689767e+01 -1.1198882207366045e+00 0.0000000000000000e+00  9.3364868715273559e+00 -3.6408380465737475e+00 0.0000000000000000e+00  9.2732567298590052e+00 -3.4459218485596894e+00 0.0000000000000000e+00  1.2083393758341749e+01 -3.3035875784737513e-03 0.0000000000000000e+00  1.3342598884389783e+01 -1.1069418188352651e+00 0.0000000000000000e+00  1.4243353778768958e+01 -2.6965325951551402e+00 0.0000000000000000e+00  9.3095646584355158e+00 -4.2233923586945243e+00 0.0000000000000000e+00  1.0263676544500697e+01 -3.1368083594407294e+00 0.0000000000000000e+00  1.1134311770294694e+01 -3.9623810742715717e+00 0.0000000000000000e+00  9.3137949996260883e+00 -3.8334600101832113e+00 0.0000000000000000e+00  1.0852415846867505e+01 -2.3318876137854181e+00 0.0000000000000000e+00  1.2719262129529534e+01 -1.5782968649369800e+00 0.0000000000000000e+00  1.7968196624454137e+01 -1.0470249882193638e+01 0.0000000000000000e+00  9.4123889556478311e+00 -4.3678003290482481e+00 0.0000000000000000e+00  1.1808167378714472e+01 -1.9388951114471400e+00 0.0000000000000000e+00  9.3724010129375994e+00 -4.2396939749747133e+00 0.0000000000000000e+00  1.2782332455997684e+01 -1.9117207975195152e+00 0.0000000000000000e+00  1.1027919126283203e+01 -3.4847885449989744e+00 0.0000000000000000e+00  9.2725049261703791e+00 -3.8200544247157655e+00 0.0000000000000000e+00  1.3063269626541585e+01 -1.2942859207511543e+00 0.0000000000000000e+00  1.2551375421049798e+01 -1.0500669545700951e+00 0.0000000000000000e+00  1.1313300783655023e+01 -3.6402733889308907e+00 0.0000000000000000e+00  1.2064202089867191e+01 -1.9033433896196460e-02 0.0000000000000000e+00  9.3236466624327505e+00 -3.8302222077375117e+00 0.0000000000000000e+00  1.3549352427302008e+01 -1.6819491696242132e+01 0.0000000000000000e+00  1.0881375270280399e+01 -3.4351387190722233e+00 0.0000000000000000e+00  1.3613021032588977e+01 -3.1305163296355865e+00 0.0000000000000000e+00  9.2974496692390289e+00 -4.5408103123128605e+00 0.0000000000000000e+00  8.6042516798265041e+00 -4.2166399868322042e+00 0.0000000000000000e+00  1.1440790239831664e+01 -2.8621685085043871e+00 0.0000000000000000e+00  1.0397883647508610e+01 -3.6664339465046218e+00 0.0000000000000000e+00  1.2507330144688638e+01 -1.2920392704616233e+00 0.0000000000000000e+00  1.1886672522449848e+01 -1.2054911944872160e+00 0.0000000000000000e+00  1.2297366115830664e+01 -2.2109631282437747e+00 0.0000000000000000e+00  9.3053718009045490e+00 -4.0018107839165591e+00 0.0000000000000000e+00  9.6548648957163596e+00 -3.6277386913943168e+00 0.0000000000000000e+00  1.3923308983473213e+01 -6.1947958113636190e+00 0.0000000000000000e+00  9.6810161629490867e+00 -3.4318476627915819e+00 0.0000000000000000e+00  9.9714306560445358e+00 -4.6777921290666971e+00 0.0000000000000000e+00  1.2093239358333479e+01 -3.6526064080830513e-02 0.0000000000000000e+00  1.1276656717033408e+01 -1.0470022211706580e+00 0.0000000000000000e+00  5.3682172110809878e+00 -1.5397888765569546e+01 0.0000000000000000e+00  1.0736483035615960e+01 -3.3138194298710246e+00 0.0000000000000000e+00  9.9749246313042388e+00 -4.5914864266987685e+00 0.0000000000000000e+00  1.0591928185841322e+01 -2.7433054830917221e+00 0.0000000000000000e+00  1.0579671154961813e+01 -4.4503618521554458e+00 0.0000000000000000e+00  1.1417768888821721e+01 -3.6425702648842515e+00 0.0000000000000000e+00  1.1704207899419901e+01 -2.4603845212542832e+00 0.0000000000000000e+00  1.2697974571806638e+01 -1.6362281869028694e+00 0.0000000000000000e+00  1.2095723927064409e+01 -5.7957031114094530e-03 0.0000000000000000e+00  1.1784162109423770e+01 -4.0942414637499497e-01 0.0000000000000000e+00  1.3545271594028899e+01 -1.4707806181530991e+00 0.0000000000000000e+00  1.0389102364318022e+01 -2.4723767621154820e+00 0.0000000000000000e+00  1.2395782583450428e+01 -2.8247205865527127e+00 0.0000000000000000e+00  9.4980956978383109e+00 -6.2413665832186149e+00 0.0000000000000000e+00  1.2585691508646134e+01 -8.2422860226768382e+00 0.0000000000000000e+00  1.2435563955975111e+01 -4.5377611988905828e+00 0.0000000000000000e+00  1.1016445087766414e+01 -2.7335442602879629e+00 0.0000000000000000e+00  1.0879518926623808e+01 -3.7118995071789755e+00 0.0000000000000000e+00  1.1452004678828599e+01 -4.0587673589482449e+00 0.0000000000000000e+00  1.1556957200054716e+01 -3.6059488034768270e+00 0.0000000000000000e+00  1.2123379763470449e+01 -3.1203279784783440e-02 0.0000000000000000e+00  1.2157443379457593e+01 -6.4924106008216598e-01 0.0000000000000000e+00  1.2061405837455927e+01 -3.0759533960457330e-01 0.0000000000000000e+00  1.2319095652080399e+01 -4.0320141970461931e-01 0.0000000000000000e+00  9.0583344742926215e+00 -4.2909931731975375e+00 0.0000000000000000e+00  1.1348645052727697e+01 -3.8549226015731675e+00 0.0000000000000000e+00  1.1309635719050195e+01 -3.8707838657466382e+00 0.0000000000000000e+00  9.0879932560324601e+00 -3.9647280618954053e+00 0.0000000000000000e+00  1.0695330367676345e+01 -3.1191136527930410e+00 0.0000000000000000e+00  9.1895126933131355e+00 -4.2068101791967294e+00 0.0000000000000000e+00  1.2051380658839644e+01 -1.0844713828154523e-02 0.0000000000000000e+00  1.2027315338028803e+01 -3.5998773447096122e-02 0.0000000000000000e+00  6.2478275904775895e+00 -9.9463838548896888e+00 0.0000000000000000e+00  1.2560966235743352e+01 -4.3357827841642688e-01 0.0000000000000000e+00  1.3145323633834073e+01 -2.6703342766071629e+00 0.0000000000000000e+00  1.2180675196404151e+01 -6.8931851068667407e-02 0.0000000000000000e+00  1.3449610000840373e+01 -1.5555746024706243e+00 0.0000000000000000e+00  1.2328601798584323e+01 -2.0368195454224106e-01 0.0000000000000000e+00  1.2477157022854884e+01 -1.1625995465959955e+00 0.0000000000000000e+00  1.1714340815814859e+01 -5.2862311207088131e-01 0.0000000000000000e+00  1.1297957593990905e+01 -3.6422194322610282e+00 0.0000000000000000e+00  8.2698096831299193e+00 -1.1685251030997547e+01 0.0000000000000000e+00  1.1321364032645322e+01 -1.8459149905022847e+00 0.0000000000000000e+00  1.1069262448923411e+01 -3.6792951790195620e+00 0.0000000000000000e+00  1.1400116326298326e+01 -4.2217425124648180e+00 0.0000000000000000e+00  1.1190042314224019e+01 -3.6235626990684282e+00 0.0000000000000000e+00  9.8712346974161012e+00 -4.8066515661537013e+00 0.0000000000000000e+00  1.2783097061360305e+01 -1.8619369426392964e+00 0.0000000000000000e+00  1.0898661524363341e+01 -2.3609483645659237e+00 0.0000000000000000e+00  1.0736450103437383e+01 -1.9177002840227690e+00 0.0000000000000000e+00  1.1994466069744782e+01 -2.4113797546497603e-01 0.0000000000000000e+00  1.1300544720342025e+01 -3.3216769226062088e+00 0.0000000000000000e+00  1.0897036254344805e+01 -4.4987510744066324e+00 0.0000000000000000e+00  1.2965000330589376e+01 -1.7522953805619712e+00 0.0000000000000000e+00  1.2952559923651972e+01 -2.4641844876525938e+00 0.0000000000000000e+00  1.2002792906728432e+01 -4.2606042445166215e-01 0.0000000000000000e+00  1.2031761151370873e+01 -1.5424406746739148e+00 0.0000000000000000e+00  1.1118800336703124e+01 -1.4163806790332389e+00 0.0000000000000000e+00  1.1073921701125673e+01 -3.2559629197660360e+00 0.0000000000000000e+00  1.0145891996208025e+01 -3.9231226452536374e+00 0.0000000000000000e+00  9.9878138515957122e+00 -3.3109980637447642e+00 0.0000000000000000e+00  1.5260129543267116e+01 -3.0205122035217298e+00 0.0000000000000000e+00  1.1914276674341068e+01 -1.9201054878755860e-01 0.0000000000000000e+00  8.9897855330223013e+00 -4.0418670725599757e+00 0.0000000000000000e+00  9.6618987561930769e+00 -4.5063170667777479e+00 0.0000000000000000e+00  9.1994419051792597e+00 -4.1234887841411183e+00 0.0000000000000000e+00  1.5183884844823567e+01 -1.3407394934882396e+01 0.0000000000000000e+00  9.8230127443180724e+00 -3.3921392408407578e+00 0.0000000000000000e+00  1.4927876070165038e+01 -9.3473898058626173e+00 0.0000000000000000e+00  1.2049878727828432e+01 -6.9098928502278445e-02 0.0000000000000000e+00  1.6897606286049967e+01 -4.8872925965783756e+00 0.0000000000000000e+00  1.1975998179744636e+01 -9.7014182161426071e-02 0.0000000000000000e+00  2.1270640292163034e+01 -1.2166340927289884e+01 0.0000000000000000e+00  2.1359196080870131e+01 -1.7519328169636058e+01 0.0000000000000000e+00  9.8062770203268155e+00 -3.3003565396102603e+00 0.0000000000000000e+00  1.0327586466990702e+01 -3.7204128957961897e+00 0.0000000000000000e+00  1.0783714825207568e+01 -3.1520057571681037e+00 0.0000000000000000e+00  1.1814610810835379e+01 -2.5680567440242057e+00 0.0000000000000000e+00  1.0275387962281942e+01 -2.7826791469667653e+00 0.0000000000000000e+00  1.2781442616183082e+01 -1.5203751048097716e+00 0.0000000000000000e+00  1.4093087229020528e+01 -1.8963757835679129e+00 0.0000000000000000e+00  1.33105023371