<?xml version="1.0"?>
<VTKFile type="UnstructuredGrid"  version="0.1"  >
<UnstructuredGrid>
<Piece  NumberOfPoints="1981" NumberOfCells="3668">
<Points>
<DataArray  type="Float64"  NumberOfComponents="3"  format="ascii">-2 0.5 0  -2 0 0  -0.5 0 0  -0.4968561049466213 -0.05598223805165387 0  -0.4874639560909119 -0.1112604669781569 0  -0.4719416651541838 -0.1651395309775835 0  -0.4504844339512096 -0.216941869558779 0  -0.4233620996141421 -0.2660160382576682 0  -0.3909157412340148 -0.3117449009293669 0  -0.3535533905932738 -0.3535533905932737 0  -0.3117449009293669 -0.3909157412340148 0  -0.2660160382576683 -0.4233620996141421 0  -0.2169418695587791 -0.4504844339512095 0  -0.1651395309775836 -0.4719416651541837 0  -0.1112604669781573 -0.4874639560909118 0  -0.05598223805165402 -0.4968561049466213 0  -9.184850993605148e-17 -0.5 0  2 -0.5 0  2 0 0  0.5 0 0  0.4968561049466213 0.05598223805165393 0  0.4874639560909118 0.1112604669781572 0  0.4719416651541838 0.1651395309775835 0  0.4504844339512096 0.2169418695587791 0  0.4233620996141421 0.2660160382576683 0  0.3909157412340149 0.3117449009293667 0  0.3535533905932738 0.3535533905932737 0  0.3117449009293668 0.3909157412340149 0  0.2660160382576683 0.4233620996141421 0  0.2169418695587791 0.4504844339512096 0  0.1651395309775837 0.4719416651541837 0  0.1112604669781572 0.4874639560909118 0  0.05598223805165384 0.4968561049466213 0  3.061616997868383e-17 0.5 0  0.1398708344106534 0.05418624992807294 0  0.15 0 0  0.1398708344106534 -0.05418624992807295 0  0.1108513375830988 -0.1010543465469837 0  0.06686075336648065 -0.1342744937032594 0  0.01384025391949536 -0.1493601264442552 0  -0.04104944851081246 -0.1442738464759228 0  -0.09039519545688858 -0.1197025840920358 0  -0.1275325703594421 -0.07896482443160337 0  -0.1474459649525853 -0.02756242767248552 0  -0.1474459649525853 0.02756242767248555 0  -0.1275325703594421 0.07896482443160341 0  -0.09039519545688844 0.1197025840920359 0  -0.04104944851081243 0.1442738464759228 0  0.0138402539194953 0.1493601264442552 0  0.06686075336648074 0.1342744937032593 0  0.1108513375830989 0.1010543465469836 0  -1 0.5 0  1 -0.5 0  -1.25 0 0  -0.5 0.5 0  1.25 0 0  0.4999999999999999 -0.5 0  -1.5 0.5 0  1.5 -0.5 0  -0.875 0 0  0.875 0 0  -1.625 0 0  1.625 0 0  0.6875 -0.2500000000000001 0  -0.6875 0.25 0  -2 0.25 0  1.75 -0.5 0  0.2499999999999999 -0.5 0  -0.3583969912126916 0.25 0  0.3749999999999999 -0.25 0  -1.0625 0.21875 0  1.0625 -0.21875 0  -1.75 0.5 0  -1.25 0.5 0  -1.375 0.25 0  1.4375 -0.21875 0  2 -0.25 0  1.25 -0.5 0  1.7375 -0.2375 0  -1.7375 0.2375 0  0.75 -0.5 0  -0.75 0.5 0  -0.25 0.5 0  -0.1570377317087672 0.3153742794659282 0  0.1249999999999999 -0.3338777090152827 0  -0.8826650943396226 0.3263561320754717 0  0.8826650943396227 -0.3263561320754717 0  1.25 -0.1897321428571428 0  1.4375 0 0  -1.4375 0 0  1.0625 0 0  -1.0625 0 0  -0.6875 0 0  0.6875 0 0  1.8125 0 0  -1.8125 0 0  0.3263011380546194 -0.06940056902730968 0  -1.554017857142857 0.1790178571428572 0  0.08847100915780901 0.3109433440851622 0  -0.2412983234264066 -0.2156373655531345 0  -1.625 0.3744047619047619 0  1.625 -0.3744047619047619 0  0.2743272717766799 0.1698562554772697 0  -0.3279338175957848 0.06764246763930631 0  -1.863068181818182 0.3630681818181818 0  2 -0.375 0  1.875 -0.5 0  -0.05442366733490933 -0.3203147637646457 0  1.321986607142857 -0.3448660714285714 0  1.125 -0.5 0  -1.209821428571429 0.3236607142857143 0  -0.5229484956063458 0.1781011282952406 0  0.9067445847815293 -0.1625224987586892 0  -0.8335714777578845 0.1642411083184135 0  -1.237063437253354 0.1627182813733228 0  -0.4947697009489606 0.3378596801347012 0  0.53125 -0.171875 0  0.5156249999999999 -0.3359375 0  -2 0.125 0  1.873225308641975 -0.1497685185185185 0  0.2341337966231563 -0.1911191776024666 0  -0.625 0.5 0  1.587453076345555 -0.2288757784711196 0  1.8125 -0.3654761904761905 0  -0.3326862624810256 -0.08869875963335262 0  -0.375 0.5 0  1.174048204529175 -0.319244854540162 0  -1.067618031042359 0.3674567846760797 0  -0.96875 0.109375 0  1.481463366596639 -0.3565498074229692 0  1.023503306098383 -0.3576535124663073 0  -0.2265388519390893 0.1866542405407749 0  0.625 -0.5 0  -1.852445652173913 0.1432065217391304 0  -1.375 0.5 0  -1.479101577239454 0.3541992113802732 0  0.2708871299591885 -0.3541935649795943 0  1.520204106978579 -0.109375 0  0.78125 -0.1026731411563172 0  -0.3125 0.3785994323952442 0  0.3749999999999999 -0.5 0  1.141568346088435 -0.109375 0  1.358431653911565 -0.109375 0  1.668712727161379 -0.1246887081867154 0  -1.673050595238095 0.1226339285714286 0  -1.34375 0 0  -1.431523109243698 0.1313182773109244 0  -0.7546231943577876 0.3660317014105531 0  -0.6233296454587935 0.3645528204344609 0  0.7546231943577878 -0.3660317014105531 0  0.6537002726710706 -0.125 0  -0.6441338591766993 0.125 0  1.375 -0.5 0  -2 0.375 0  -1.875 0.5 0  1.625 -0.5 0  -1.625 0.5 0  0.875 -0.5 0  -0.875 0.5 0  0.1249999999999999 -0.5 0  -0.125 0.5 0  2 -0.125 0  -1.125 0.5 0  -1.354082022940739 0.375 0  -0.03500388138134332 0.2732363193989585 0  0.3955099577726473 -0.3752808566622692 0  0.3596026196703111 0.0631070919012526 0  -0.0625 0.394061918116807 0  0.6342080192637126 -0.3582597885274255 0  -1.123666900137815 0.109375 0  -1.744588744588745 0.3803841991341991 0  0.2210084381421171 0.2925777566973838 0  0.8072251313743133 -0.2315819627814412 0  -0.1814335426834733 -0.3282792760620681 0  -0.9356634513979559 0.2218154628239019 0  0.4183753556420685 -0.1414382112841371 0  -0.1238894550978499 -0.2292394949250368 0  0.96875 0 0  1.013652292192466 -0.1102204462032291 0  -0.4393328341626322 0.09834605222123384 0  1.882206434331873 -0.2686982850037661 0  0.1426699461850768 0.2146575767791519 0  -1.886304127069339 0.251758104550396 0  0.2495743011762567 0.06264742837969955 0  -0.78125 0 0  0.04042933102838756 -0.2590839715717854 0  -1.53125 0 0  -0.5823692714154002 0.2663576540687616 0  -0.2594008044921133 0.2871583817002197 0  -0.9375 0.4157678007976423 0  0.9696186653311423 -0.2675997292662616 0  -0.7942971416386473 0.2646257048857303 0  0.06249999999999992 -0.4169388545076413 0  0.1874999999999999 -0.4169388545076413 0  -1.562839467699977 0.2864000626355251 0  -0.1875 0.4157529178973974 0  -0.1223698320396133 0.2179970721626365 0  1.770639498024741 -0.1399156735731578 0  0.9367002721196375 -0.4157324987180338 0  -1.90625 0 0  -0.2298618769854927 -0.08904896555277285 0  0.1397131066802196 -0.232031643549068 0  -0.4375 0.420861596936145 0  -0.3483554784186823 -0.1925292675214375 0  0.59375 0 0  -1.327632151430252 0.1057660692693074 0  -0.9830051201906395 0.3115204496273563 0  1.90625 0 0  1.236354269160391 -0.3993990952861421 0  -1.1875 0.4214935578661845 0  0.5625 -0.4247705455161483 0  -0.7349377422908023 0.1635199768201956 0  -1.583328550170068 0.08705835459183674 0  -1.640104497493491 0.2259991665335075 0  -1.467109316827997 0.2210671404637805 0  0.5896070530325394 -0.2690578560650788 0  0.3266472067106532 -0.167734762534917 0  -0.59375 0 0  -0.546875 0.08448914438556519 0  1.71875 0 0  1.156078290691277 -0.2031315651260504 0  1.337704613095238 -0.2433035714285714 0  1.236312294597949 -0.09486607142857142 0  0.1642123379155914 0.3701207892454864 0  0.2345507206108115 -0.04384512844718241 0  -0.4048861533022036 -0.02273791864794379 0  0.03798857341016919 0.3979165301900267 0  -0.4006523628802168 0.334179001454817 0  -0.1135990210174155 -0.393340785880617 0  1.906775738056482 -0.3598876272511091 0  1.720393990929705 -0.4044642857142857 0  -1.71875 0 0  1.15625 0 0  0.78125 0 0  1.53125 0 0  -0.96875 0 0  1.34375 0 0  -1.15625 0 0  1.142828909845958 -0.4078056758504979 0  0.40697192225457 -0.01923608979840619 0  -1.767708120728825 0.08966855818957545 0  -0.6882384924227143 0.4308047125515967 0  -0.3636785153797087 0.1553944795036722 0  -0.2291274285977749 0.08616080495998404 0  -0.281012338688557 -0.01202669255906096 0  0.3108677056378212 0.2586754570559801 0  -1.151751953043632 0.196872287087452 0  -0.5625 0.4330368698813529 0  0.6875 -0.4328910527173583 0  1.405021000845949 -0.3057191080886871 0  0.546875 -0.08025568181818182 0  0.3713523302229579 0.1599284134935842 0  -1.12196127795563 0.2911449911382941 0  -1.276991293863022 0.2522534749828799 0  1.255195006158927 -0.2798057638555942 0  -0.8388532729558951 0.4114132763440825 0  0.8388532729558953 -0.4114132763440825 0  -0.4557763550657601 0.2486174768248819 0  0.2049883534781638 -0.2934473685517857 0  0.3226059585583683 -0.4273378498573185 0  -1.426982449282418 0.4270508114904024 0  1.397702183984896 -0.4056170514003312 0  0.05467855045156804 0.2285245978493705 0  -0.272823163096586 -0.3046204408381326 0  -0.02656096412551515 -0.4126877256833236 0  -1.807235369718798 0.2933328120993839 0  0.1906985117418444 0.1399478964461678 0  -1.688085622354259 0.3115694793217502 0  1.659329587961023 -0.2879395206246994 0  -1.5625 0.437202380952381 0  1.546313524296827 -0.4210926184041992 0  -1.813279560389256 0.4363923695021056 0  -1.926524548924358 0.4265245489243581 0  -0.1751061200004134 -0.1578066000831913 0  0.2891187728554643 -0.268298186700636 0  0.4721679687499999 -0.2490234375 0  0.7276683718449491 -0.1720688736051095 0  0.4744973194747868 -0.4152356216385488 0  0.9322020604693165 -0.07914563824612769 0  -1.275602471792197 0.4154857864535745 0  -0.828125 0.07552171441918698 0  1.3125 -0.5 0  -1.931646474339171 0.178059096704675 0  -0.7167268019830385 0.08016211756451477 0  1.060414578698922 -0.4368616551407768 0  -1.6875 0.5 0  1.9375 -0.5 0  1.739833210773432 -0.3220974693894793 0  -2 0.3125 0  -1.207440692409131 0.07848980221212992 0  -0.04055821595704934 -0.2377097412335854 0  0.1922531441870086 -0.1190381071624572 0  1.509237778147088 -0.2717758217431455 0  0.8901922386429052 -0.2437760747352658 0  -1.498530569603453 0.07867879855510211 0  0.9849923856958628 -0.1870513965806273 0  1.515605916195201 -0.1906351698786736 0  1.439317880445072 -0.08458133750179306 0  1.932491348856277 -0.2050969650933771 0  1.828075655121533 -0.08087981225769847 0  1
[...]
<PointData  Vectors="f_39"> 
<DataArray  type="Float64"  Name="f_39"  NumberOfComponents="3" format="ascii">2.4242051098764481e+01 -2.5293257349337028e+00 0.0000000000000000e+00  1.2176299441242451e-01 -3.8354908079597877e-01 0.0000000000000000e+00  5.0902980164262068e+01 -2.2260746166571760e+01 0.0000000000000000e+00  5.0979384768498640e+01 -2.1138111633959799e+01 0.0000000000000000e+00  5.1001015155712089e+01 -2.0615157528811778e+01 0.0000000000000000e+00  5.1220001223037755e+01 -1.9872946252355810e+01 0.0000000000000000e+00  5.1327711957375605e+01 -1.9297594945121052e+01 0.0000000000000000e+00  5.1737893902851134e+01 -1.8964440510356489e+01 0.0000000000000000e+00  5.1889285039239518e+01 -1.8664934816439526e+01 0.0000000000000000e+00  5.2109517177742525e+01 -1.8443237596129205e+01 0.0000000000000000e+00  5.2462233193689805e+01 -1.7983175290508573e+01 0.0000000000000000e+00  5.2523192234520764e+01 -1.7812660905575918e+01 0.0000000000000000e+00  5.2678268268748468e+01 -1.7498636065966252e+01 0.0000000000000000e+00  5.2800873138108948e+01 -1.7181921110104032e+01 0.0000000000000000e+00  5.2904150559984039e+01 -1.6917290485189937e+01 0.0000000000000000e+00  5.3201521986284042e+01 -1.6272955535567679e+01 0.0000000000000000e+00  5.3514891773632321e+01 -1.6075675678415099e+01 0.0000000000000000e+00  5.8933777754410045e+01 -5.4489804529026971e-02 0.0000000000000000e+00  6.2054283144999737e+01 -2.0121090067662814e-01 0.0000000000000000e+00  5.9417207498305942e+01 -2.1238593190975138e+01 0.0000000000000000e+00  5.7221578252500301e+01 -2.2532451999829924e+01 0.0000000000000000e+00  5.5883099686916502e+01 -2.1946642077875019e+01 0.0000000000000000e+00  5.5313799855747739e+01 -2.1497196073977157e+01 0.0000000000000000e+00  5.4976640207097873e+01 -2.0889006264680464e+01 0.0000000000000000e+00  5.4888448325230129e+01 -2.0430726125382520e+01 0.0000000000000000e+00  5.4986262140701349e+01 -2.0108950965659687e+01 0.0000000000000000e+00  5.5001945618452055e+01 -1.9921242407068444e+01 0.0000000000000000e+00  5.5031671434866738e+01 -1.9695466861697490e+01 0.0000000000000000e+00  5.4926282564982223e+01 -1.9547708622703496e+01 0.0000000000000000e+00  5.5174002572865049e+01 -1.9087522209655273e+01 0.0000000000000000e+00  5.5182359282931941e+01 -1.8802620866807313e+01 0.0000000000000000e+00  5.5496710588360969e+01 -1.8466022003285666e+01 0.0000000000000000e+00  5.5695833441556829e+01 -1.8319337176799692e+01 0.0000000000000000e+00  5.6389106187484437e+01 -1.8105466436186664e+01 0.0000000000000000e+00  5.5476786429715766e+01 -2.0682030772821420e+01 0.0000000000000000e+00  5.4664757274844341e+01 -1.9969842472868041e+01 0.0000000000000000e+00  5.3980016911911150e+01 -1.8205408837616734e+01 0.0000000000000000e+00  5.4164430846163562e+01 -1.6921433215915830e+01 0.0000000000000000e+00  5.5091066879277477e+01 -1.6063944042031629e+01 0.0000000000000000e+00  5.6044299662860936e+01 -1.6488138204292923e+01 0.0000000000000000e+00  5.5975013024655738e+01 -1.8826536688527742e+01 0.0000000000000000e+00  5.5077180424679440e+01 -2.0132201004313369e+01 0.0000000000000000e+00  5.3974863254125040e+01 -2.0772890397625847e+01 0.0000000000000000e+00  5.2775612422502334e+01 -2.0766079858646727e+01 0.0000000000000000e+00  5.2420001377710165e+01 -2.0055490286816429e+01 0.0000000000000000e+00  5.3641295160995710e+01 -1.8876906731521824e+01 0.0000000000000000e+00  5.4898242559950766e+01 -1.8205130633968462e+01 0.0000000000000000e+00  5.6271061531529163e+01 -1.8106339766597163e+01 0.0000000000000000e+00  5.7027791058441615e+01 -1.9211380476078098e+01 0.0000000000000000e+00  5.6941092911259958e+01 -1.9585808045880455e+01 0.0000000000000000e+00  5.6154077016915608e+01 -2.0774892256136912e+01 0.0000000000000000e+00  6.7250538411828742e+01 -4.3274974933579060e+01 0.0000000000000000e+00  5.8029109471457865e+01 -8.9033056018895103e+00 0.0000000000000000e+00  3.5227754889821050e+01 -5.6091182239844976e+01 0.0000000000000000e+00  6.1227012353520301e+01 -2.4218185848483614e+01 0.0000000000000000e+00  6.2452762892395299e+01 -6.2643946764175009e+00 0.0000000000000000e+00  5.6392159750104419e+01 -1.3266429160540030e+01 0.0000000000000000e+00  6.8789377108406612e+01 -8.8294397783272558e+01 0.0000000000000000e+00  5.8242319323361372e+01 -3.8460619482389409e+00 0.0000000000000000e+00  4.4219842635890153e+01 -3.5709421047910865e+01 0.0000000000000000e+00  6.2814282517982143e+01 -1.0808565369553527e+01 0.0000000000000000e+00  2.4577127194153771e+01 -8.8865581521086654e+01 0.0000000000000000e+00  6.2196102235723998e+01 -2.8189748761993410e+00 0.0000000000000000e+00  5.9690195496419371e+01 -1.2793371553402057e+01 0.0000000000000000e+00  5.4934420074226828e+01 -3.1022759237181969e+01 0.0000000000000000e+00  1.3559777278859883e+01 -1.0479129315811584e+00 0.0000000000000000e+00  5.8581174210387829e+01 -1.5013871108187371e+00 0.0000000000000000e+00  5.5003260001189979e+01 -1.4743901914867795e+01 0.0000000000000000e+00  5.5735262263196830e+01 -2.2412766210727092e+01 0.0000000000000000e+00  5.6995947621665614e+01 -1.5918213512478982e+01 0.0000000000000000e+00  5.2525109812501114e+01 -4.8297129199912696e+01 0.0000000000000000e+00  6.0643056953778832e+01 -8.3370898005189318e+00 0.0000000000000000e+00  6.5933793354994492e+01 -1.1171125916936488e+02 0.0000000000000000e+00  7.0328232597622261e+01 -5.9975961933836430e+01 0.0000000000000000e+00  5.0858726320503486e+01 -7.0315495368912082e+01 0.0000000000000000e+00  6.0732085244110756e+01 -4.5161131743139080e+00 0.0000000000000000e+00  6.0423448145072122e+01 -1.9010037626597809e-01 0.0000000000000000e+00  5.8130808339575424e+01 -6.2467550906097058e+00 0.0000000000000000e+00  6.0457514217986734e+01 -2.0358885108328213e+00 0.0000000000000000e+00  3.9504386509954749e+01 -1.0622629089256425e+02 0.0000000000000000e+00  5.7582886651089069e+01 -1.1316451495730517e+01 0.0000000000000000e+00  6.3212941317769129e+01 -3.2719546524805516e+01 0.0000000000000000e+00  5.8352829592852494e+01 -1.9910587346338023e+01 0.0000000000000000e+00  5.6501402229289134e+01 -1.9774610173961293e+01 0.0000000000000000e+00  5.4877316890355864e+01 -1.6133290649646096e+01 0.0000000000000000e+00  5.8667420200658228e+01 -3.8934503724717544e+01 0.0000000000000000e+00  5.9327417913596769e+01 -1.0199670953711621e+01 0.0000000000000000e+00  6.0815874558078761e+01 -6.3896654165359825e+00 0.0000000000000000e+00  6.2505746591109975e+01 -4.5017781458526613e+00 0.0000000000000000e+00  2.9323868555468831e+01 -7.1097408162237699e+01 0.0000000000000000e+00  6.2945809138623986e+01 -8.0493301401765027e+00 0.0000000000000000e+00  4.0671012247307416e+01 -4.4196975313145877e+01 0.0000000000000000e+00  4.6659988000172035e+01 -2.9070008973308880e+01 0.0000000000000000e+00  6.2915829720469574e+01 -1.3117408385869359e+01 0.0000000000000000e+00  6.2147944564891297e+01 -1.1620035228233438e+00 0.0000000000000000e+00  2.2237739506534581e+01 -9.9989402842274316e+01 0.0000000000000000e+00  5.6698475083964532e+01 -1.8649408908603533e+01 0.0000000000000000e+00  4.0456510743655436e+01 -8.5307477814375787e+01 0.0000000000000000e+00  5.5994292512493224e+01 -1.9231993639139539e+01 0.0000000000000000e+00  5.3021808950954885e+01 -1.9172013553125993e+01 0.0000000000000000e+00  5.8255963029080249e+01 -9.8984438596235663e+01 0.0000000000000000e+00  5.9338778835452196e+01 -2.9430935293421698e+00 0.0000000000000000e+00  5.5716697063858739e+01 -2.0256391329670329e+01 0.0000000000000000e+00  5.3217037605597845e+01 -2.1349661919789966e+01 0.0000000000000000e+00  4.6483464850664880e+01 -1.3591698519214268e+02 0.0000000000000000e+00  5.9514744174329138e+01 -2.0166532090329115e-01 0.0000000000000000e+00  5.8880211539477749e+01 -8.1367525262159990e-01 0.0000000000000000e+00  5.4194640068086358e+01 -1.7336555694025520e+01 0.0000000000000000e+00  5.9471203607494523e+01 -5.6180920227834852e+00 0.0000000000000000e+00  5.8052542396042234e+01 -7.5410924281929299e+00 0.0000000000000000e+00  5.8218345319522882e+01 -5.8321789130124820e+01 0.0000000000000000e+00  5.3571912117834295e+01 -2.5535000869640822e+01 0.0000000000000000e+00  6.1303458368702081e+01 -1.0248207683424882e+01 0.0000000000000000e+00  5.0803713286504980e+01 -3.6217117011543500e+01 0.0000000000000000e+00  4.6534947271710799e+01 -5.9510837566836351e+01 0.0000000000000000e+00  5.7814500732200905e+01 -2.5259150575882863e+01 0.0000000000000000e+00  5.9789198878680409e+01 -1.5345492152486386e+01 0.0000000000000000e+00  5.7542431294378005e+01 -1.4123860179325092e+01 0.0000000000000000e+00  7.1988079222293750e+00 -6.3473057672275612e-01 0.0000000000000000e+00  6.1228122709241319e+01 -9.4846452520823288e-01 0.0000000000000000e+00  5.5651814083161533e+01 -1.6832377650797991e+01 0.0000000000000000e+00  6.2276165108466365e+01 -2.8242858465899694e+01 0.0000000000000000e+00  6.0542038739844017e+01 -3.2093122658981823e+00 0.0000000000000000e+00  5.9495942876824586e+01 -1.3151781297426004e+00 0.0000000000000000e+00  5.2304238894472590e+01 -2.0345805428044915e+01 0.0000000000000000e+00  5.9779525070176234e+01 -2.1547848360990805e+01 0.0000000000000000e+00  5.9572905665653494e+01 -7.1500860726792643e+00 0.0000000000000000e+00  6.0564125235146470e+01 -4.8597435124520985e+01 0.0000000000000000e+00  4.6860987583813909e+01 -4.1991128435019007e+01 0.0000000000000000e+00  5.9379364538558683e+01 -4.1783025020945344e+00 0.0000000000000000e+00  5.9195151145948373e+01 -8.5972068618949713e+00 0.0000000000000000e+00  5.4813453230583548e+01 -2.0276747594818634e+01 0.0000000000000000e+00  5.7089530266391847e+01 -1.2414264029526912e+01 0.0000000000000000e+00  2.3608655174465973e+01 -1.0780464838134026e+02 0.0000000000000000e+00  7.1466452949710117e+01 -7.1872065219043222e+01 0.0000000000000000e+00  6.0213783035083985e+01 -8.3684746471680981e+01 0.0000000000000000e+00  5.5731645985433403e+01 -1.5594160489100547e+01 0.0000000000000000e+00  6.1503770015156903e+01 -3.7563930694963759e+00 0.0000000000000000e+00  6.1833542115552156e+01 -1.1780400678766906e+01 0.0000000000000000e+00  5.7507592511645285e+01 -2.1284593979118561e+01 0.0000000000000000e+00  5.5627880996042506e+01 -1.4190360424359497e+01 0.0000000000000000e+00  6.1809131922849041e+01 -7.4018448479443055e+00 0.0000000000000000e+00  6.1666718753599135e+01 -5.3317429130587763e+00 0.0000000000000000e+00  6.1342123371863579e+01 -2.5868266991425348e+00 0.0000000000000000e+00  3.2724530708840526e+01 -9.6176310416171489e+01 0.0000000000000000e+00  3.2403315068937253e+01 -6.4714780031195517e+01 0.0000000000000000e+00  3.8747567710864828e+01 -7.4373853009114512e+01 0.0000000000000000e+00  5.9380268715847215e+01 -3.3207533643519326e+01 0.0000000000000000e+00  5.8940652020832374e+01 -2.8598529491911773e+01 0.0000000000000000e+00  5.8503830465792056e+01 -1.1562011547886424e+01 0.0000000000000000e+00  6.1209219869830619e+01 -1.3612449459026390e+01 0.0000000000000000e+00  5.0776033483622633e+01 -2.8568926150758756e+01 0.0000000000000000e+00  5.8333409000913420e+01 -5.2214642170544829e+00 0.0000000000000000e+00  1.9302741779768915e+01 -1.5469356665531375e+00 0.0000000000000000e+00  6.4144213812880153e+01 -1.4899548360628626e+02 0.0000000000000000e+00  5.8293370595752940e+01 -2.8236142968604896e+00 0.0000000000000000e+00  6.9568216992341320e+01 -1.0160997646866116e+02 0.0000000000000000e+00  5.7746329151799515e+01 -9.9227092901238620e+00 0.0000000000000000e+00  6.4289535100923160e+01 -3.6918654457165196e+01 0.0000000000000000e+00  5.4240239852485054e+01 -1.5239686143188148e+01 0.0000000000000000e+00  5.7490909284304720e+01 -1.8686279053017621e+01 0.0000000000000000e+00  6.1323063583702151e+01 -2.1592955685774198e-01 0.0000000000000000e+00  6.7959608586395944e+01 -5.3027822708537947e+01 0.0000000000000000e+00  6.2713581845059252e+01 -7.1081549380511632e+01 0.0000000000000000e+00  5.6273104777652691e+01 -1.9032129241107242e+01 0.0000000000000000e+00  5.6473420918597171e+01 -1.4683964512660141e+01 0.0000000000000000e+00  5.6420681356933130e+01 -2.0486458725710207e+01 0.0000000000000000e+00  5.6588418340469453e+01 -1.8870740048976433e+01 0.0000000000000000e+00  5.8306558607212125e+01 -1.2750052560867857e+01 0.0000000000000000e+00  4.3940384170597049e+01 -4.9811770928896131e+01 0.0000000000000000e+00  5.7650330390778755e+01 -1.1547327542178395e+02 0.0000000000000000e+00  5.5569328025938184e+01 -1.9703968848877697e+01 0.0000000000000000e+00  6.0364548035229959e+01 -1.1268198164951043e+01 0.0000000000000000e+00  5.3214986846295169e+01 -1.8042573801255426e+01 0.0000000000000000e+00  5.2459326343380688e+01 -4.0701697183534037e+01 0.0000000000000000e+00  5.8268499166681316e+01 -1.7278013608751753e+01 0.0000000000000000e+00  5.4179950862031454e+01 -1.8607912954443027e+01 0.0000000000000000e+00  6.3021230869578538e+01 -9.6472705487943351e+00 0.0000000000000000e+00  6.1993556854049793e+01 -8.8854562538576332e+00 0.0000000000000000e+00  5.2783267693070840e+01 -2.2954345099070018e+01 0.0000000000000000e+00  6.0290938113734981e+01 -9.1979817268014064e-01 0.0000000000000000e+00  5.6148957785549555e+01 -1.9822098793307024e+01 0.0000000000000000e+00  2.7596683242481809e+01 -1.2166954776660529e+02 0.0000000000000000e+00  5.5706770668555436e+01 -2.0105751777494994e+01 0.0000000000000000e+00  4.5718325718962575e+01 -3.2015483660668849e+01 0.0000000000000000e+00  5.5008204899415333e+01 -1.6743089545473584e+01 0.0000000000000000e+00  2.6973187768855198e+01 -8.1048138776890383e+01 0.0000000000000000e+00  5.5885344930958482e+01 -2.7135630800965888e+01 0.0000000000000000e+00  5.6209494791654279e+01 -2.0876399736835864e+01 0.0000000000000000e+00  6.3120035848785534e+01 -4.0691870194459653e+01 0.0000000000000000e+00  6.0112714342964601e+01 -9.3935494913285016e+00 0.0000000000000000e+00  5.4984517271201021e+01 -3.4793873190840920e+01 0.0000000000000000e+00  5.4129788728731050e+01 -1.6106423984443399e+01 0.0000000000000000e+00  5.4900450068091324e+01 -1.5390653131578546e+01 0.0000000000000000e+00  5.1075039175884534e+01 -8.9965922595492202e+01 0.0000000000000000e+00  5.7447205083306748e+01 -1.9570582146392486e+01 0.0000000000000000e+00  5.5564894856429973e+01 -1.9126554225274887e+01 0.0000000000000000e+00  6.1342009187945067e+01 -1.7663826033302759e+00 0.0000000000000000e+00  5.8377329967916538e+01 -9.4704375617524779e+00 0.0000000000000000e+00  1.9601159838064198e+01 -9.9541221307860141e+01 0.0000000000000000e+00  5.3043594125151394e+01 -2.0411926743261130e+01 0.0000000000000000e+00  5.5114710230600714e+01 -1.6465608122049126e+01 0.0000000000000000e+00  5.9561298437049075e+01 -2.3344080824126191e+01 0.0000000000000000e+00  5.2155116264312667e+01 -1.9523964996297018e+01 0.0000000000000000e+00  6.3482011116235391e+01 -1.4893321946367980e+01 0.0000000000000000e+00  3.9215848053454565e+01 -6.4930345951882344e+01 0.0000000000000000e+00  5.7460161489056723e+01 -4.3442959870250178e+01 0.0000000000000000e+00  6.2019323571176912e+01 -5.7251328821267733e-01 0.0000000000000000e+00  5.8907181299251079e+01 -6.5938644578922645e+00 0.0000000000000000e+00  6.5197660433642298e+01 -5.6595450546944107e+01 0.0000000000000000e+00  5.7125452842010660e+01 -1.3153340865601773e+01 0.0000000000000000e+00  5.1676879637333030e+01 -3.1886892677671341e+01 0.0000000000000000e+00  3.1438914781572969e+01 -8.7009788035608508e+01 0.0000000000000000e+00  4.1169834466187602e+01 -9.6311073292106798e+01 0.0000000000000000e+00  4.5590872976973451e+01 -7.9799410212893463e+01 0.0000000000000000e+00  5.8930110450629549e+01 -1.3837794144071026e+01 0.0000000000000000e+00  5.6832849576634281e+01 -1.7189024510918166e+01 0.0000000000000000e+00  4.9208117982896212e+01 -2.4925708809979660e+01 0.0000000000000000e+00  5.0922092764960901e+01 -2.4881486197229908e+01 0.0000000000000000e+00  6.2174091790616167e+01 -2.1507593718899978e+00 0.0000000000000000e+00  6.0814936665818536e+01 -7.3858264015108128e+00 0.0000000000000000e+00  6.0344487269282368e+01 -5.5424419290794615e+00 0.0000000000000000e+00  6.1803055150841168e+01 -6.4381239050860408e+00 0.0000000000000000e+00  5.5550617880861964e+01 -1.9251740597906966e+01 0.0000000000000000e+00  5.5339870010612174e+01 -1.8622155785354312e+01 0.0000000000000000e+00  5.1871222738227701e+01 -2.1292396544893723e+01 0.0000000000000000e+00  5.6120406225552465e+01 -1.8732912219859944e+01 0.0000000000000000e+00  5.7351305467159406e+01 -2.2815156855010851e+01 0.0000000000000000e+00  5.3326179023162190e+01 -1.7234223262595659e+01 0.0000000000000000e+00  5.9663834193068261e+01 -6.1450178939231270e-01 0.0000000000000000e+00  5.9124617407930408e+01 -1.8659849218518005e+00 0.0000000000000000e+00  2.3681073706336008e+01 -9.7174905269114731e+01 0.0000000000000000e+00  6.2723182174766286e+01 -6.9581553873812778e+00 0.0000000000000000e+00  6.2932494426262352e+01 -1.1844115800920466e+01 0.0000000000000000e+00  6.2271950835477945e+01 -3.5679265044007087e+00 0.0000000000000000e+00  4.2486918045858360e+01 -4.0388493170843347e+01 0.0000000000000000e+00  6.2439116885414705e+01 -5.4285054621748312e+00 0.0000000000000000e+00  3.7315084286368410e+01 -4.9285990766144799e+01 0.0000000000000000e+00  5.8790637617233891e+01 -7.2978566519641683e+00 0.0000000000000000e+00  5.8313153723117694e+01 -1.9823540632340308e+01 0.0000000000000000e+00  2.6855973618770211e+01 -1.0074274234516008e+02 0.0000000000000000e+00  6.1485999220970768e+01 -3.0638133948032738e+01 0.0000000000000000e+00  5.4147837015621967e+01 -2.2109448448783585e+01 0.0000000000000000e+00  5.3563740286365643e+01 -2.0170803658392369e+01 0.0000000000000000e+00  5.2789095906475495e+01 -2.0670408401363932e+01 0.0000000000000000e+00  5.5295952811767336e+01 -2.0121892073980472e+01 0.0000000000000000e+00  4.9604739432888202e+01 -5.4083560136049805e+01 0.0000000000000000e+00  6.0395903717615447e+01 -2.6610078076433648e+01 0.0000000000000000e+00  5.7799084704673362e+01 -1.1901208853647706e+01 0.0000000000000000e+00  5.9750311908476007e+01 -5.0455036263693760e+00 0.0000000000000000e+00  6.1409399669277839e+01 -1.6668244044743158e+01 0.0000000000000000e+00  5.5707538058875620e+01 -2.0684518742791266e+01 0.0000000000000000e+00  5.5937102029992104e+01 -5.2243877828455517e+01 0.0000000000000000e+00  5.2106602484820101e+01 -6.3902341910697558e+01 0.0000000000000000e+00  6.0039165635660922e+01 -6.3509806994046718e+00 0.0000000000000000e+00  6.1429669865021992e+01 -3.5590094335089994e+01 0.0000000000000000e+00  5.8325477356284985e+01 -1.0464711375050991e+01 0.0000000000000000e+00  5.5458564987978917e+01 -2.3988683169994591e+01 0.0000000000000000e+00  5.5530164276986007e+01 -1.6064744258920356e+01 0.0000000000000000e+00  5.5658289905029278e+01 -1.4907110401493226e+01 0.0000000000000000e+00  6.7846676109736464e+01 -7.8629049549949428e+01 0.0000000000000000e+00  5.8862569959915014e+01 -4.9742457064770385e+00 0.0000000000000000e+00  5.6459934605438420e+01 -1.9349199770874563e+01 0.0000000000000000e+00  5.2579498087511936e+01 -1.8505261581595892e+01 0.0000000000000000e+00  5.3768981933651034e+01 -1.6634814396929322e+01 0.0000000000000000e+00  4.1440276645115901e+01 -1.1749829534535996e+02 0.0000000000000000e+00  5.5991891021601873e+01 -2.0273346801755519e+01 0.0000000000000000e+00  4.9100215419971200e+01 -1.0398523694845376e+02 0.0000000000000000e+00  5.9959577841418145e+01 -2.5737802746345975e+00 0.0000000000000000e+00  6.6115907217737913e+01 -9.2296433526097999e+01 0.0000000000000000e+00  5.8867777515638892e+01 -3.6413460999470280e+00 0.0000000000000000e+00  6.6649339682457651e+01 -1.2950651345798522e+02 0.0000000000000000e+00  4.7993974242542585e+01 -1.5441860075993819e+02 0.0000000000000000e+00  5.3845326274748736e+01 -1.9854246335918194e+01 0.0000000000000000e+00  5.5952758280816951e+01 -1.6045124686641557e+01 0.0000000000000000e+00  5.7972373707699660e+01 -1.5271038783709272e+01 0.0000000000000000e+00  6.0786898348170965e+01 -1.2584787139189517e+01 0.0000000000000000e+00  5.6769468264137068e+01 -1.3863531088552181e+01 0.0000000000000000e+00  6.2396536570642397e+01 -1.0088579135373704e+01 0.0000000000000000e+00  6.6010927197710075e+01 -6.3778669090175981e+01 0.0000000000000000e+00  4.7041599182