<?xml version="1.0"?>
<VTKFile type="UnstructuredGrid"  version="0.1"  >
<UnstructuredGrid>
<Piece  NumberOfPoints="1981" NumberOfCells="3668">
<Points>
<DataArray  type="Float64"  NumberOfComponents="3"  format="ascii">-2 0.5 0  -2 0 0  -0.5 0 0  -0.4968561049466213 -0.05598223805165387 0  -0.4874639560909119 -0.1112604669781569 0  -0.4719416651541838 -0.1651395309775835 0  -0.4504844339512096 -0.216941869558779 0  -0.4233620996141421 -0.2660160382576682 0  -0.3909157412340148 -0.3117449009293669 0  -0.3535533905932738 -0.3535533905932737 0  -0.3117449009293669 -0.3909157412340148 0  -0.2660160382576683 -0.4233620996141421 0  -0.2169418695587791 -0.4504844339512095 0  -0.1651395309775836 -0.4719416651541837 0  -0.1112604669781573 -0.4874639560909118 0  -0.05598223805165402 -0.4968561049466213 0  -9.184850993605148e-17 -0.5 0  2 -0.5 0  2 0 0  0.5 0 0  0.4968561049466213 0.05598223805165393 0  0.4874639560909118 0.1112604669781572 0  0.4719416651541838 0.1651395309775835 0  0.4504844339512096 0.2169418695587791 0  0.4233620996141421 0.2660160382576683 0  0.3909157412340149 0.3117449009293667 0  0.3535533905932738 0.3535533905932737 0  0.3117449009293668 0.3909157412340149 0  0.2660160382576683 0.4233620996141421 0  0.2169418695587791 0.4504844339512096 0  0.1651395309775837 0.4719416651541837 0  0.1112604669781572 0.4874639560909118 0  0.05598223805165384 0.4968561049466213 0  3.061616997868383e-17 0.5 0  0.1398708344106534 0.05418624992807294 0  0.15 0 0  0.1398708344106534 -0.05418624992807295 0  0.1108513375830988 -0.1010543465469837 0  0.06686075336648065 -0.1342744937032594 0  0.01384025391949536 -0.1493601264442552 0  -0.04104944851081246 -0.1442738464759228 0  -0.09039519545688858 -0.1197025840920358 0  -0.1275325703594421 -0.07896482443160337 0  -0.1474459649525853 -0.02756242767248552 0  -0.1474459649525853 0.02756242767248555 0  -0.1275325703594421 0.07896482443160341 0  -0.09039519545688844 0.1197025840920359 0  -0.04104944851081243 0.1442738464759228 0  0.0138402539194953 0.1493601264442552 0  0.06686075336648074 0.1342744937032593 0  0.1108513375830989 0.1010543465469836 0  -1 0.5 0  1 -0.5 0  -1.25 0 0  -0.5 0.5 0  1.25 0 0  0.4999999999999999 -0.5 0  -1.5 0.5 0  1.5 -0.5 0  -0.875 0 0  0.875 0 0  -1.625 0 0  1.625 0 0  0.6875 -0.2500000000000001 0  -0.6875 0.25 0  -2 0.25 0  1.75 -0.5 0  0.2499999999999999 -0.5 0  -0.3583969912126916 0.25 0  0.3749999999999999 -0.25 0  -1.0625 0.21875 0  1.0625 -0.21875 0  -1.75 0.5 0  -1.25 0.5 0  -1.375 0.25 0  1.4375 -0.21875 0  2 -0.25 0  1.25 -0.5 0  1.7375 -0.2375 0  -1.7375 0.2375 0  0.75 -0.5 0  -0.75 0.5 0  -0.25 0.5 0  -0.1570377317087672 0.3153742794659282 0  0.1249999999999999 -0.3338777090152827 0  -0.8826650943396226 0.3263561320754717 0  0.8826650943396227 -0.3263561320754717 0  1.25 -0.1897321428571428 0  1.4375 0 0  -1.4375 0 0  1.0625 0 0  -1.0625 0 0  -0.6875 0 0  0.6875 0 0  1.8125 0 0  -1.8125 0 0  0.3263011380546194 -0.06940056902730968 0  -1.554017857142857 0.1790178571428572 0  0.08847100915780901 0.3109433440851622 0  -0.2412983234264066 -0.2156373655531345 0  -1.625 0.3744047619047619 0  1.625 -0.3744047619047619 0  0.2743272717766799 0.1698562554772697 0  -0.3279338175957848 0.06764246763930631 0  -1.863068181818182 0.3630681818181818 0  2 -0.375 0  1.875 -0.5 0  -0.05442366733490933 -0.3203147637646457 0  1.321986607142857 -0.3448660714285714 0  1.125 -0.5 0  -1.209821428571429 0.3236607142857143 0  -0.5229484956063458 0.1781011282952406 0  0.9067445847815293 -0.1625224987586892 0  -0.8335714777578845 0.1642411083184135 0  -1.237063437253354 0.1627182813733228 0  -0.4947697009489606 0.3378596801347012 0  0.53125 -0.171875 0  0.5156249999999999 -0.3359375 0  -2 0.125 0  1.873225308641975 -0.1497685185185185 0  0.2341337966231563 -0.1911191776024666 0  -0.625 0.5 0  1.587453076345555 -0.2288757784711196 0  1.8125 -0.3654761904761905 0  -0.3326862624810256 -0.08869875963335262 0  -0.375 0.5 0  1.174048204529175 -0.319244854540162 0  -1.067618031042359 0.3674567846760797 0  -0.96875 0.109375 0  1.481463366596639 -0.3565498074229692 0  1.023503306098383 -0.3576535124663073 0  -0.2265388519390893 0.1866542405407749 0  0.625 -0.5 0  -1.852445652173913 0.1432065217391304 0  -1.375 0.5 0  -1.479101577239454 0.3541992113802732 0  0.2708871299591885 -0.3541935649795943 0  1.520204106978579 -0.109375 0  0.78125 -0.1026731411563172 0  -0.3125 0.3785994323952442 0  0.3749999999999999 -0.5 0  1.141568346088435 -0.109375 0  1.358431653911565 -0.109375 0  1.668712727161379 -0.1246887081867154 0  -1.673050595238095 0.1226339285714286 0  -1.34375 0 0  -1.431523109243698 0.1313182773109244 0  -0.7546231943577876 0.3660317014105531 0  -0.6233296454587935 0.3645528204344609 0  0.7546231943577878 -0.3660317014105531 0  0.6537002726710706 -0.125 0  -0.6441338591766993 0.125 0  1.375 -0.5 0  -2 0.375 0  -1.875 0.5 0  1.625 -0.5 0  -1.625 0.5 0  0.875 -0.5 0  -0.875 0.5 0  0.1249999999999999 -0.5 0  -0.125 0.5 0  2 -0.125 0  -1.125 0.5 0  -1.354082022940739 0.375 0  -0.03500388138134332 0.2732363193989585 0  0.3955099577726473 -0.3752808566622692 0  0.3596026196703111 0.0631070919012526 0  -0.0625 0.394061918116807 0  0.6342080192637126 -0.3582597885274255 0  -1.123666900137815 0.109375 0  -1.744588744588745 0.3803841991341991 0  0.2210084381421171 0.2925777566973838 0  0.8072251313743133 -0.2315819627814412 0  -0.1814335426834733 -0.3282792760620681 0  -0.9356634513979559 0.2218154628239019 0  0.4183753556420685 -0.1414382112841371 0  -0.1238894550978499 -0.2292394949250368 0  0.96875 0 0  1.013652292192466 -0.1102204462032291 0  -0.4393328341626322 0.09834605222123384 0  1.882206434331873 -0.2686982850037661 0  0.1426699461850768 0.2146575767791519 0  -1.886304127069339 0.251758104550396 0  0.2495743011762567 0.06264742837969955 0  -0.78125 0 0  0.04042933102838756 -0.2590839715717854 0  -1.53125 0 0  -0.5823692714154002 0.2663576540687616 0  -0.2594008044921133 0.2871583817002197 0  -0.9375 0.4157678007976423 0  0.9696186653311423 -0.2675997292662616 0  -0.7942971416386473 0.2646257048857303 0  0.06249999999999992 -0.4169388545076413 0  0.1874999999999999 -0.4169388545076413 0  -1.562839467699977 0.2864000626355251 0  -0.1875 0.4157529178973974 0  -0.1223698320396133 0.2179970721626365 0  1.770639498024741 -0.1399156735731578 0  0.9367002721196375 -0.4157324987180338 0  -1.90625 0 0  -0.2298618769854927 -0.08904896555277285 0  0.1397131066802196 -0.232031643549068 0  -0.4375 0.420861596936145 0  -0.3483554784186823 -0.1925292675214375 0  0.59375 0 0  -1.327632151430252 0.1057660692693074 0  -0.9830051201906395 0.3115204496273563 0  1.90625 0 0  1.236354269160391 -0.3993990952861421 0  -1.1875 0.4214935578661845 0  0.5625 -0.4247705455161483 0  -0.7349377422908023 0.1635199768201956 0  -1.583328550170068 0.08705835459183674 0  -1.640104497493491 0.2259991665335075 0  -1.467109316827997 0.2210671404637805 0  0.5896070530325394 -0.2690578560650788 0  0.3266472067106532 -0.167734762534917 0  -0.59375 0 0  -0.546875 0.08448914438556519 0  1.71875 0 0  1.156078290691277 -0.2031315651260504 0  1.337704613095238 -0.2433035714285714 0  1.236312294597949 -0.09486607142857142 0  0.1642123379155914 0.3701207892454864 0  0.2345507206108115 -0.04384512844718241 0  -0.4048861533022036 -0.02273791864794379 0  0.03798857341016919 0.3979165301900267 0  -0.4006523628802168 0.334179001454817 0  -0.1135990210174155 -0.393340785880617 0  1.906775738056482 -0.3598876272511091 0  1.720393990929705 -0.4044642857142857 0  -1.71875 0 0  1.15625 0 0  0.78125 0 0  1.53125 0 0  -0.96875 0 0  1.34375 0 0  -1.15625 0 0  1.142828909845958 -0.4078056758504979 0  0.40697192225457 -0.01923608979840619 0  -1.767708120728825 0.08966855818957545 0  -0.6882384924227143 0.4308047125515967 0  -0.3636785153797087 0.1553944795036722 0  -0.2291274285977749 0.08616080495998404 0  -0.281012338688557 -0.01202669255906096 0  0.3108677056378212 0.2586754570559801 0  -1.151751953043632 0.196872287087452 0  -0.5625 0.4330368698813529 0  0.6875 -0.4328910527173583 0  1.405021000845949 -0.3057191080886871 0  0.546875 -0.08025568181818182 0  0.3713523302229579 0.1599284134935842 0  -1.12196127795563 0.2911449911382941 0  -1.276991293863022 0.2522534749828799 0  1.255195006158927 -0.2798057638555942 0  -0.8388532729558951 0.4114132763440825 0  0.8388532729558953 -0.4114132763440825 0  -0.4557763550657601 0.2486174768248819 0  0.2049883534781638 -0.2934473685517857 0  0.3226059585583683 -0.4273378498573185 0  -1.426982449282418 0.4270508114904024 0  1.397702183984896 -0.4056170514003312 0  0.05467855045156804 0.2285245978493705 0  -0.272823163096586 -0.3046204408381326 0  -0.02656096412551515 -0.4126877256833236 0  -1.807235369718798 0.2933328120993839 0  0.1906985117418444 0.1399478964461678 0  -1.688085622354259 0.3115694793217502 0  1.659329587961023 -0.2879395206246994 0  -1.5625 0.437202380952381 0  1.546313524296827 -0.4210926184041992 0  -1.813279560389256 0.4363923695021056 0  -1.926524548924358 0.4265245489243581 0  -0.1751061200004134 -0.1578066000831913 0  0.2891187728554643 -0.268298186700636 0  0.4721679687499999 -0.2490234375 0  0.7276683718449491 -0.1720688736051095 0  0.4744973194747868 -0.4152356216385488 0  0.9322020604693165 -0.07914563824612769 0  -1.275602471792197 0.4154857864535745 0  -0.828125 0.07552171441918698 0  1.3125 -0.5 0  -1.931646474339171 0.178059096704675 0  -0.7167268019830385 0.08016211756451477 0  1.060414578698922 -0.4368616551407768 0  -1.6875 0.5 0  1.9375 -0.5 0  1.739833210773432 -0.3220974693894793 0  -2 0.3125 0  -1.207440692409131 0.07848980221212992 0  -0.04055821595704934 -0.2377097412335854 0  0.1922531441870086 -0.1190381071624572 0  1.509237778147088 -0.2717758217431455 0  0.8901922386429052 -0.2437760747352658 0  -1.498530569603453 0.07867879855510211 0  0.9849923856958628 -0.1870513965806273 0  1.515605916195201 -0.1906351698786736 0  1.439317880445072 -0.08458133750179306 0  1.932491348856277 -0.2050969650933771 0  1.828075655121533 -0.08087981225769847 0  1
[...]
<PointData  Vectors="f_39"> 
<DataArray  type="Float64"  Name="f_39"  NumberOfComponents="3" format="ascii">2.4394717278377634e+01 -4.2291745435585799e+00 0.0000000000000000e+00  2.0444563418940004e-01 -5.9429634869540959e-01 0.0000000000000000e+00  6.2791151878002388e+01 -3.0210625985235374e+01 0.0000000000000000e+00  6.1836582817893579e+01 -2.9153204431709138e+01 0.0000000000000000e+00  6.1335883933627258e+01 -2.8315288234065513e+01 0.0000000000000000e+00  6.0829437726330994e+01 -2.6910179103016688e+01 0.0000000000000000e+00  6.0741556104346806e+01 -2.5723962962660838e+01 0.0000000000000000e+00  6.1313430048436189e+01 -2.4740553994719651e+01 0.0000000000000000e+00  6.1493805289572187e+01 -2.3988092797953236e+01 0.0000000000000000e+00  6.1901159481280082e+01 -2.3455677346645022e+01 0.0000000000000000e+00  6.2758739294974873e+01 -2.2367484899731775e+01 0.0000000000000000e+00  6.2961647579536006e+01 -2.2058839946644710e+01 0.0000000000000000e+00  6.3331792729685255e+01 -2.1491619769833342e+01 0.0000000000000000e+00  6.3651593270638031e+01 -2.0971602136889203e+01 0.0000000000000000e+00  6.3880517486453307e+01 -2.0536094638094021e+01 0.0000000000000000e+00  6.4479234037634782e+01 -1.9505641289394752e+01 0.0000000000000000e+00  6.5066978719927462e+01 -1.9233040162930887e+01 0.0000000000000000e+00  7.4617197757174011e+01 -4.2185285432449371e-02 0.0000000000000000e+00  7.8278708553389947e+01 -2.3828608705704052e-01 0.0000000000000000e+00  7.4241433883918020e+01 -2.8895796067527840e+01 0.0000000000000000e+00  7.0195027367278399e+01 -3.1083564061754466e+01 0.0000000000000000e+00  6.7758371178337711e+01 -2.9931772950450178e+01 0.0000000000000000e+00  6.6715596313375713e+01 -2.8998603892092792e+01 0.0000000000000000e+00  6.5959831544753143e+01 -2.7825558240914777e+01 0.0000000000000000e+00  6.5685652467825378e+01 -2.6738855253724957e+01 0.0000000000000000e+00  6.6020200387980168e+01 -2.5858352599024336e+01 0.0000000000000000e+00  6.6161271152352086e+01 -2.5367783385645449e+01 0.0000000000000000e+00  6.6380614935949666e+01 -2.4806555067387631e+01 0.0000000000000000e+00  6.6363208224785140e+01 -2.4455172448378743e+01 0.0000000000000000e+00  6.7031109938521226e+01 -2.3701063522002713e+01 0.0000000000000000e+00  6.7154295046541392e+01 -2.3285797281113300e+01 0.0000000000000000e+00  6.7737706878864785e+01 -2.2791522356803711e+01 0.0000000000000000e+00  6.8089955803272517e+01 -2.2569182062574075e+01 0.0000000000000000e+00  6.9183606598294574e+01 -2.2230208675847781e+01 0.0000000000000000e+00  6.7714438776629706e+01 -2.7223407695644845e+01 0.0000000000000000e+00  6.6446979052437257e+01 -2.6044638480997619e+01 0.0000000000000000e+00  6.5415157731237741e+01 -2.3061581732856489e+01 0.0000000000000000e+00  6.5838564974482694e+01 -2.0907967015777025e+01 0.0000000000000000e+00  6.7457314455721203e+01 -1.9410501813743700e+01 0.0000000000000000e+00  6.9096209610853194e+01 -2.0018670117385991e+01 0.0000000000000000e+00  6.9034108942069494e+01 -2.4025116991699043e+01 0.0000000000000000e+00  6.7562023137831005e+01 -2.6272240746103176e+01 0.0000000000000000e+00  6.5676349198898379e+01 -2.7376165537452675e+01 0.0000000000000000e+00  6.3640898032985206e+01 -2.7236192044193544e+01 0.0000000000000000e+00  6.2958153881401195e+01 -2.5907487674785330e+01 0.0000000000000000e+00  6.4942764164211908e+01 -2.3670100817476388e+01 0.0000000000000000e+00  6.6998952384026538e+01 -2.2454025041995575e+01 0.0000000000000000e+00  6.9286092440558917e+01 -2.2219478303853819e+01 0.0000000000000000e+00  7.0539932533289260e+01 -2.4273960672748100e+01 0.0000000000000000e+00  7.0367451380835632e+01 -2.4994352899717203e+01 0.0000000000000000e+00  6.8879292335724585e+01 -2.7299789557959716e+01 0.0000000000000000e+00  8.1886006597046361e+01 -5.4538467401682631e+01 0.0000000000000000e+00  7.3465116220529382e+01 -1.0302821660796400e+01 0.0000000000000000e+00  4.4837363480605596e+01 -6.8657461802957997e+01 0.0000000000000000e+00  7.6506335673047104e+01 -3.0949647198155283e+01 0.0000000000000000e+00  7.8666888015876495e+01 -7.3579095938516303e+00 0.0000000000000000e+00  7.0505001897022780e+01 -1.5533140236508565e+01 0.0000000000000000e+00  8.3851545233259557e+01 -1.0539267513722416e+02 0.0000000000000000e+00  7.3795377889710679e+01 -4.4477598194394545e+00 0.0000000000000000e+00  5.5019852045427498e+01 -4.4664542430719500e+01 0.0000000000000000e+00  7.9271514840295453e+01 -1.2352747316133499e+01 0.0000000000000000e+00  3.1801665041082405e+01 -1.0543444174741346e+02 0.0000000000000000e+00  7.8435702529840512e+01 -3.2802579159680358e+00 0.0000000000000000e+00  7.5319467625449903e+01 -1.5371063892800310e+01 0.0000000000000000e+00  6.8131383560890058e+01 -3.9437084615064016e+01 0.0000000000000000e+00  1.3613472413703471e+01 -1.7729167845467273e+00 0.0000000000000000e+00  7.4194998125369494e+01 -1.7342133146420116e+00 0.0000000000000000e+00  6.7871153620430277e+01 -1.7265462875344738e+01 0.0000000000000000e+00  6.8810367542961785e+01 -2.8650396773959145e+01 0.0000000000000000e+00  7.0821424718680035e+01 -1.9708419308669665e+01 0.0000000000000000e+00  6.4784373148014168e+01 -5.9780094590078178e+01 0.0000000000000000e+00  7.6561545355551033e+01 -9.6899889243504038e+00 0.0000000000000000e+00  8.2112527949079549e+01 -1.3326573406550295e+02 0.0000000000000000e+00  8.5196215232850136e+01 -7.2953160993453125e+01 0.0000000000000000e+00  6.2791182489626301e+01 -8.4622785127701718e+01 0.0000000000000000e+00  7.6709664107464036e+01 -5.2654264128035519e+00 0.0000000000000000e+00  7.6372786743615293e+01 -2.1332337636339274e-01 0.0000000000000000e+00  7.3643930666036866e+01 -7.2337460982072237e+00 0.0000000000000000e+00  7.6399998105263876e+01 -2.3692510907965914e+00 0.0000000000000000e+00  4.8815514254891397e+01 -1.2741283027255317e+02 0.0000000000000000e+00  7.2658915656589954e+01 -1.3086989274095156e+01 0.0000000000000000e+00  7.8107580818786957e+01 -4.2201972892122981e+01 0.0000000000000000e+00  7.2294203104613374e+01 -2.4845264237118585e+01 0.0000000000000000e+00  6.9565037261459878e+01 -2.4780285561351043e+01 0.0000000000000000e+00  6.7324456336777018e+01 -1.9568600707170589e+01 0.0000000000000000e+00  7.2179242648122028e+01 -4.9088286719203381e+01 0.0000000000000000e+00  7.4957055278672684e+01 -1.1915820564055778e+01 0.0000000000000000e+00  7.6774690101416297e+01 -7.4507675746527129e+00 0.0000000000000000e+00  7.8812254166524269e+01 -5.2808509337813412e+00 0.0000000000000000e+00  3.7902471024861278e+01 -8.5398310186065544e+01 0.0000000000000000e+00  7.9141281282660046e+01 -9.3405728997622468e+00 0.0000000000000000e+00  5.0772490922324998e+01 -5.5018465926554192e+01 0.0000000000000000e+00  5.8441511729409747e+01 -3.6748112576912931e+01 0.0000000000000000e+00  8.0147611613525271e+01 -1.5672684502731435e+01 0.0000000000000000e+00  7.8361802457092864e+01 -1.3540808851031354e+00 0.0000000000000000e+00  2.7638051121290193e+01 -1.1828581241025522e+02 0.0000000000000000e+00  6.9875749906393523e+01 -2.4159776539667973e+01 0.0000000000000000e+00  5.0673860212695615e+01 -1.0222020349706082e+02 0.0000000000000000e+00  6.8532491760704403e+01 -2.4222317509694498e+01 0.0000000000000000e+00  6.3936990436680098e+01 -2.4725300454641875e+01 0.0000000000000000e+00  7.2100377071162384e+01 -1.1861914722132904e+02 0.0000000000000000e+00  7.5091140624867975e+01 -3.4198041467595721e+00 0.0000000000000000e+00  6.7786717682383639e+01 -2.6453111143003937e+01 0.0000000000000000e+00  6.5031347283989916e+01 -2.7841247516392666e+01 0.0000000000000000e+00  5.7002921915711148e+01 -1.6609228027888793e+02 0.0000000000000000e+00  7.5319486099164450e+01 -2.3265151368876386e-01 0.0000000000000000e+00  7.4583556460515126e+01 -9.5327408428066351e-01 0.0000000000000000e+00  6.6046891901534579e+01 -2.1439917731882716e+01 0.0000000000000000e+00  7.5223734930575006e+01 -6.5365617395022513e+00 0.0000000000000000e+00  7.3530945030546476e+01 -8.7330527615865012e+00 0.0000000000000000e+00  7.1241472149894179e+01 -7.1181839503201545e+01 0.0000000000000000e+00  6.6486549017415200e+01 -3.2884851080208946e+01 0.0000000000000000e+00  7.7404182807481007e+01 -1.1947704277441993e+01 0.0000000000000000e+00  6.2992954085219672e+01 -4.5532264177086475e+01 0.0000000000000000e+00  5.7906467301414239e+01 -7.2657779357942843e+01 0.0000000000000000e+00  7.1791429757966682e+01 -3.2268310548551455e+01 0.0000000000000000e+00  7.5309703065376610e+01 -1.9190815218395819e+01 0.0000000000000000e+00  7.2035147266579685e+01 -1.7015781432136002e+01 0.0000000000000000e+00  7.2632553569408556e+00 -1.0480649501891541e+00 0.0000000000000000e+00  7.7295433927395109e+01 -1.1059696474788014e+00 0.0000000000000000e+00  6.8420365137535271e+01 -2.0933806279395423e+01 0.0000000000000000e+00  7.7611409483986179e+01 -3.6486889205822095e+01 0.0000000000000000e+00  7.6490044548451976e+01 -3.7447400268441493e+00 0.0000000000000000e+00  7.5285505484792196e+01 -1.5339728154084245e+00 0.0000000000000000e+00  6.3090127289687636e+01 -2.6942024725464016e+01 0.0000000000000000e+00  7.4417004445551527e+01 -2.7230497248956553e+01 0.0000000000000000e+00  7.5318767935013170e+01 -8.3059540286033915e+00 0.0000000000000000e+00  7.3972913910089943e+01 -6.0253013086754699e+01 0.0000000000000000e+00  5.8212966534279140e+01 -5.2363283140609695e+01 0.0000000000000000e+00  7.5140226881186337e+01 -4.8578976957675462e+00 0.0000000000000000e+00  7.4854268356302214e+01 -9.9834947442326900e+00 0.0000000000000000e+00  6.7092124262943699e+01 -2.5721438406138478e+01 0.0000000000000000e+00  7.1768860692756817e+01 -1.4459713263047636e+01 0.0000000000000000e+00  2.8547368720480090e+01 -1.2868379972600840e+02 0.0000000000000000e+00  8.6376905614162467e+01 -8.6226214062777998e+01 0.0000000000000000e+00  7.3913290750685221e+01 -1.0039515264359065e+02 0.0000000000000000e+00  6.8869930858591573e+01 -1.8885316607631527e+01 0.0000000000000000e+00  7.7622994471596769e+01 -4.3850970790051278e+00 0.0000000000000000e+00  7.8295156031543812e+01 -1.3857861706401049e+01 0.0000000000000000e+00  7.1159400253231354e+01 -2.6889362370809405e+01 0.0000000000000000e+00  6.9125072184638128e+01 -1.6666775559582053e+01 0.0000000000000000e+00  7.7894604434965530e+01 -8.6305382757931479e+00 0.0000000000000000e+00  7.7781179626754493e+01 -6.2366991558861002e+00 0.0000000000000000e+00  7.7424843421237711e+01 -3.0142407040199788e+00 0.0000000000000000e+00  4.0956802141506735e+01 -1.1476940273937468e+02 0.0000000000000000e+00  4.1692903934337124e+01 -7.8225905459138332e+01 0.0000000000000000e+00  4.8931235326636767e+01 -8.9543512668952658e+01 0.0000000000000000e+00  7.3433269810762170e+01 -4.2399094734116275e+01 0.0000000000000000e+00  7.3192626709338796e+01 -3.6659344401699343e+01 0.0000000000000000e+00  7.3801498453928971e+01 -1.3584660670198696e+01 0.0000000000000000e+00  7.7534105645491977e+01 -1.6569168523317483e+01 0.0000000000000000e+00  6.3266945227524353e+01 -3.6430538979302462e+01 0.0000000000000000e+00  7.3928313778581554e+01 -6.0509108351348049e+00 0.0000000000000000e+00  1.9437260887343463e+01 -2.6449699770794894e+00 0.0000000000000000e+00  7.8924031800147134e+01 -1.8588242085867466e+02 0.0000000000000000e+00  7.3871127363154002e+01 -3.2721554290698083e+00 0.0000000000000000e+00  8.5895684426032375e+01 -1.2146262231031164e+02 0.0000000000000000e+00  7.3034644504391665e+01 -1.1488526132974275e+01 0.0000000000000000e+00  7.8554651446376837e+01 -4.7278690992257651e+01 0.0000000000000000e+00  6.6410613452232766e+01 -1.7926166486293500e+01 0.0000000000000000e+00  7.0928538168125328e+01 -2.3037948460017851e+01 0.0000000000000000e+00  7.7416454840032586e+01 -2.4497795899622249e-01 0.0000000000000000e+00  8.2041814280131945e+01 -6.5402821398080832e+01 0.0000000000000000e+00  7.6519987100068505e+01 -8.5659491114689430e+01 0.0000000000000000e+00  6.9187262143370688e+01 -2.3778336161466953e+01 0.0000000000000000e+00  7.0261204079807740e+01 -1.7644133353699988e+01 0.0000000000000000e+00  6.8995576791470185e+01 -2.7225888386065431e+01 0.0000000000000000e+00  6.9567261928424685e+01 -2.3424463967885387e+01 0.0000000000000000e+00  7.3360087642445109e+01 -1.5164134966169589e+01 0.0000000000000000e+00  5.4842380829989295e+01 -6.1491535996474838e+01 0.0000000000000000e+00  7.1884016104643237e+01 -1.3940918663735843e+02 0.0000000000000000e+00  6.7581753390783987e+01 -2.5090315194459745e+01 0.0000000000000000e+00  7.6264732009430617e+01 -1.3291499212925157e+01 0.0000000000000000e+00  6.4240132594854870e+01 -2.2607303960551434e+01 0.0000000000000000e+00  6.4875600937682762e+01 -5.0886203029748906e+01 0.0000000000000000e+00  7.2680280342904652e+01 -2.2106096708543149e+01 0.0000000000000000e+00  6.5972691902182973e+01 -2.3652797674000077e+01 0.0000000000000000e+00  7.9335932920771029e+01 -1.1014391124676068e+01 0.0000000000000000e+00  7.8119630594018247e+01 -1.0301270896803384e+01 0.0000000000000000e+00  6.5097559134877230e+01 -3.0042585087459109e+01 0.0000000000000000e+00  7.6209823274835685e+01 -1.0727317800703058e+00 0.0000000000000000e+00  6.8799228580435127e+01 -2.5436016589828199e+01 0.0000000000000000e+00  3.2698886431727182e+01 -1.4677987295614912e+02 0.0000000000000000e+00  6.8005862008440602e+01 -2.6347023904712806e+01 0.0000000000000000e+00  5.7049092122200385e+01 -4.0253225684883887e+01 0.0000000000000000e+00  6.7431985122447813e+01 -2.0523494447928552e+01 0.0000000000000000e+00  3.4994737417174505e+01 -9.7090767462315554e+01 0.0000000000000000e+00  6.9357803907596676e+01 -3.4731263486270755e+01 0.0000000000000000e+00  6.9278575906997233e+01 -2.6444041120293921e+01 0.0000000000000000e+00  7.7119345265071487e+01 -5.1413244482815763e+01 0.0000000000000000e+00  7.5926366094207395e+01 -1.0955210667718744e+01 0.0000000000000000e+00  6.8020189318427725e+01 -4.4027081671775761e+01 0.0000000000000000e+00  6.6096517821520720e+01 -1.9371010300988420e+01 0.0000000000000000e+00  6.7543018935865007e+01 -1.8316416498824452e+01 0.0000000000000000e+00  6.3185257234367299e+01 -1.0792221852619501e+02 0.0000000000000000e+00  7.0963300862720430e+01 -2.4361224006385065e+01 0.0000000000000000e+00  6.8145678669999839e+01 -2.3887792169168467e+01 0.0000000000000000e+00  7.7436683179145277e+01 -2.0526251812356060e+00 0.0000000000000000e+00  7.3844973584901439e+01 -1.0977211593998371e+01 0.0000000000000000e+00  2.3871910077821685e+01 -1.1739777629135695e+02 0.0000000000000000e+00  6.4187012269993147e+01 -2.6782903333265821e+01 0.0000000000000000e+00  6.7581123846193464e+01 -2.0146279169911733e+01 0.0000000000000000e+00  7.4147502459780711e+01 -2.9706000973900661e+01 0.0000000000000000e+00  6.2435846500147974e+01 -2.5672451036093250e+01 0.0000000000000000e+00  8.1166530321294474e+01 -1.8514685467119623e+01 0.0000000000000000e+00  4.9511800080151758e+01 -7.8732940504390655e+01 0.0000000000000000e+00  7.0555117151725980e+01 -5.4264454068031341e+01 0.0000000000000000e+00  7.8221627071889188e+01 -6.6264589066005941e-01 0.0000000000000000e+00  7.4558914666232255e+01 -7.6492871684608685e+00 0.0000000000000000e+00  7.9050351814021852e+01 -6.9333138734085978e+01 0.0000000000000000e+00  7.1615962254842842e+01 -1.5520733079468757e+01 0.0000000000000000e+00  6.4255104811808181e+01 -4.0401557989334073e+01 0.0000000000000000e+00  3.9871781379585968e+01 -1.0394334738335012e+02 0.0000000000000000e+00  5.1054247435737103e+01 -1.1553120447067155e+02 0.0000000000000000e+00  5.6765893553547926e+01 -9.6031882606315079e+01 0.0000000000000000e+00  7.4122485023133052e+01 -1.6809043092482785e+01 0.0000000000000000e+00  7.0329556108582096e+01 -2.1747355040573645e+01 0.0000000000000000e+00  6.1662758744568677e+01 -3.2114740262967572e+01 0.0000000000000000e+00  6.3591586761825120e+01 -3.2359711338102194e+01 0.0000000000000000e+00  7.8403576031370847e+01 -2.5059874103889892e+00 0.0000000000000000e+00  7.6747114277598712e+01 -8.5970029461245812e+00 0.0000000000000000e+00  7.6240818390131452e+01 -6.4613040165711020e+00 0.0000000000000000e+00  7.7915222162332668e+01 -7.5304144590181767e+00 0.0000000000000000e+00  6.7688034734721910e+01 -2.4156061337348262e+01 0.0000000000000000e+00  6.7595160808018861e+01 -2.3910817422572276e+01 0.0000000000000000e+00  6.3120175759093890e+01 -2.8689506281625761e+01 0.0000000000000000e+00  6.8767358930694215e+01 -2.3273641142923093e+01 0.0000000000000000e+00  7.1076720862424409e+01 -2.8959923479082917e+01 0.0000000000000000e+00  6.4555218189234438e+01 -2.1178620807888819e+01 0.0000000000000000e+00  7.5478985768702387e+01 -7.1873597474728446e-01 0.0000000000000000e+00  7.4845358940079151e+01 -2.1706087582823952e+00 0.0000000000000000e+00  2.9971686904721388e+01 -1.1525713433290258e+02 0.0000000000000000e+00  7.8953503567893833e+01 -8.1298224548880675e+00 0.0000000000000000e+00  7.9816868461930170e+01 -1.3709449037679477e+01 0.0000000000000000e+00  7.8532113415848983e+01 -4.1647120203947940e+00 0.0000000000000000e+00  5.2859736922730512e+01 -5.0442466165600784e+01 0.0000000000000000e+00  7.8687368914556700e+01 -6.3700338576873694e+00 0.0000000000000000e+00  4.7050709999533893e+01 -6.0898323019476159e+01 0.0000000000000000e+00  7.4403892143920118e+01 -8.4691255623780837e+00 0.0000000000000000e+00  7.2439428361439255e+01 -2.6389979862116530e+01 0.0000000000000000e+00  3.3387169593109725e+01 -1.1990799572044256e+02 0.0000000000000000e+00  7.6234568276901797e+01 -3.9445960432571006e+01 0.0000000000000000e+00  6.6587776376496493e+01 -2.8543414701688427e+01 0.0000000000000000e+00  6.5101318909371443e+01 -2.5873579929471500e+01 0.0000000000000000e+00  6.3968985456674595e+01 -2.7128875446692298e+01 0.0000000000000000e+00  6.6754502991712855e+01 -2.5973514432529747e+01 0.0000000000000000e+00  6.1375060861834001e+01 -6.6355328872083220e+01 0.0000000000000000e+00  7.5221299564468595e+01 -3.4171564646611991e+01 0.0000000000000000e+00  7.2824067457499154e+01 -1.3916628014363338e+01 0.0000000000000000e+00  7.5560223806060307e+01 -5.8720706963928313e+00 0.0000000000000000e+00  7.7806921060936531e+01 -2.1391246448029193e+01 0.0000000000000000e+00  6.7552700476230285e+01 -2.7409945470507985e+01 0.0000000000000000e+00  6.8691072794216041e+01 -6.4270206491556181e+01 0.0000000000000000e+00  6.4302112149195281e+01 -7.7653289617955465e+01 0.0000000000000000e+00  7.5870452246292757e+01 -7.3913830107151934e+00 0.0000000000000000e+00  7.5617776706085124e+01 -4.5387006603017369e+01 0.0000000000000000e+00  7.3702394129379499e+01 -1.2187911691299986e+01 0.0000000000000000e+00  6.8621265387590128e+01 -3.0785577483630075e+01 0.0000000000000000e+00  6.8387462394781011e+01 -1.9601365138045509e+01 0.0000000000000000e+00  6.8966769883446005e+01 -1.7763457820721669e+01 0.0000000000000000e+00  8.2646544093657667e+01 -9.4317785652666544e+01 0.0000000000000000e+00  7.4528857418660564e+01 -5.7817720665158818e+00 0.0000000000000000e+00  6.9474708219329614e+01 -2.4501798405653119e+01 0.0000000000000000e+00  6.3001642884003083e+01 -2.3504442854814837e+01 0.0000000000000000e+00  6.5421468055276378e+01 -2.0212947753910221e+01 0.0000000000000000e+00  5.1058412226292717e+01 -1.4202656585098188e+02 0.0000000000000000e+00  6.8494733936262534e+01 -2.6428593228739103e+01 0.0000000000000000e+00  6.0914473133460604e+01 -1.2503254191719567e+02 0.0000000000000000e+00  7.5817222498388361e+01 -2.9953027698280756e+00 0.0000000000000000e+00  8.1285411255212352e+01 -1.1024982757446961e+02 0.0000000000000000e+00  7.4552882156280319e+01 -4.2311859522093327e+00 0.0000000000000000e+00  8.4329416256388669e+01 -1.5791027710430183e+02 0.0000000000000000e+00  5.9031071768398853e+01 -1.9167193015426301e+02 0.0000000000000000e+00  6.5436420359546148e+01 -2.5833863021305113e+01 0.0000000000000000e+00  6.9117970939093581e+01 -1.9709892810505213e+01 0.0000000000000000e+00  7.2500170016407438e+01 -1.8877372262721106e+01 0.0000000000000000e+00  7.6877238315281090e+01 -1.5076158482858323e+01 0.0000000000000000e+00  7.0911248827343215e+01 -1.6483277848435286e+01 0.0000000000000000e+00  7.8684397442137580e+01 -1.1618995191709365e+01 0.0000000000000000e+00  7.9972637153008151e+01 -7.7410201079020680e+01 0.0000000000000000e+00  5.8558788682