<?xml version="1.0"?>
<VTKFile type="UnstructuredGrid"  version="0.1"  >
<UnstructuredGrid>
<Piece  NumberOfPoints="1981" NumberOfCells="3668">
<Points>
<DataArray  type="Float64"  NumberOfComponents="3"  format="ascii">-2 0.5 0  -2 0 0  -0.5 0 0  -0.4968561049466213 -0.05598223805165387 0  -0.4874639560909119 -0.1112604669781569 0  -0.4719416651541838 -0.1651395309775835 0  -0.4504844339512096 -0.216941869558779 0  -0.4233620996141421 -0.2660160382576682 0  -0.3909157412340148 -0.3117449009293669 0  -0.3535533905932738 -0.3535533905932737 0  -0.3117449009293669 -0.3909157412340148 0  -0.2660160382576683 -0.4233620996141421 0  -0.2169418695587791 -0.4504844339512095 0  -0.1651395309775836 -0.4719416651541837 0  -0.1112604669781573 -0.4874639560909118 0  -0.05598223805165402 -0.4968561049466213 0  -9.184850993605148e-17 -0.5 0  2 -0.5 0  2 0 0  0.5 0 0  0.4968561049466213 0.05598223805165393 0  0.4874639560909118 0.1112604669781572 0  0.4719416651541838 0.1651395309775835 0  0.4504844339512096 0.2169418695587791 0  0.4233620996141421 0.2660160382576683 0  0.3909157412340149 0.3117449009293667 0  0.3535533905932738 0.3535533905932737 0  0.3117449009293668 0.3909157412340149 0  0.2660160382576683 0.4233620996141421 0  0.2169418695587791 0.4504844339512096 0  0.1651395309775837 0.4719416651541837 0  0.1112604669781572 0.4874639560909118 0  0.05598223805165384 0.4968561049466213 0  3.061616997868383e-17 0.5 0  0.1398708344106534 0.05418624992807294 0  0.15 0 0  0.1398708344106534 -0.05418624992807295 0  0.1108513375830988 -0.1010543465469837 0  0.06686075336648065 -0.1342744937032594 0  0.01384025391949536 -0.1493601264442552 0  -0.04104944851081246 -0.1442738464759228 0  -0.09039519545688858 -0.1197025840920358 0  -0.1275325703594421 -0.07896482443160337 0  -0.1474459649525853 -0.02756242767248552 0  -0.1474459649525853 0.02756242767248555 0  -0.1275325703594421 0.07896482443160341 0  -0.09039519545688844 0.1197025840920359 0  -0.04104944851081243 0.1442738464759228 0  0.0138402539194953 0.1493601264442552 0  0.06686075336648074 0.1342744937032593 0  0.1108513375830989 0.1010543465469836 0  -1 0.5 0  1 -0.5 0  -1.25 0 0  -0.5 0.5 0  1.25 0 0  0.4999999999999999 -0.5 0  -1.5 0.5 0  1.5 -0.5 0  -0.875 0 0  0.875 0 0  -1.625 0 0  1.625 0 0  0.6875 -0.2500000000000001 0  -0.6875 0.25 0  -2 0.25 0  1.75 -0.5 0  0.2499999999999999 -0.5 0  -0.3583969912126916 0.25 0  0.3749999999999999 -0.25 0  -1.0625 0.21875 0  1.0625 -0.21875 0  -1.75 0.5 0  -1.25 0.5 0  -1.375 0.25 0  1.4375 -0.21875 0  2 -0.25 0  1.25 -0.5 0  1.7375 -0.2375 0  -1.7375 0.2375 0  0.75 -0.5 0  -0.75 0.5 0  -0.25 0.5 0  -0.1570377317087672 0.3153742794659282 0  0.1249999999999999 -0.3338777090152827 0  -0.8826650943396226 0.3263561320754717 0  0.8826650943396227 -0.3263561320754717 0  1.25 -0.1897321428571428 0  1.4375 0 0  -1.4375 0 0  1.0625 0 0  -1.0625 0 0  -0.6875 0 0  0.6875 0 0  1.8125 0 0  -1.8125 0 0  0.3263011380546194 -0.06940056902730968 0  -1.554017857142857 0.1790178571428572 0  0.08847100915780901 0.3109433440851622 0  -0.2412983234264066 -0.2156373655531345 0  -1.625 0.3744047619047619 0  1.625 -0.3744047619047619 0  0.2743272717766799 0.1698562554772697 0  -0.3279338175957848 0.06764246763930631 0  -1.863068181818182 0.3630681818181818 0  2 -0.375 0  1.875 -0.5 0  -0.05442366733490933 -0.3203147637646457 0  1.321986607142857 -0.3448660714285714 0  1.125 -0.5 0  -1.209821428571429 0.3236607142857143 0  -0.5229484956063458 0.1781011282952406 0  0.9067445847815293 -0.1625224987586892 0  -0.8335714777578845 0.1642411083184135 0  -1.237063437253354 0.1627182813733228 0  -0.4947697009489606 0.3378596801347012 0  0.53125 -0.171875 0  0.5156249999999999 -0.3359375 0  -2 0.125 0  1.873225308641975 -0.1497685185185185 0  0.2341337966231563 -0.1911191776024666 0  -0.625 0.5 0  1.587453076345555 -0.2288757784711196 0  1.8125 -0.3654761904761905 0  -0.3326862624810256 -0.08869875963335262 0  -0.375 0.5 0  1.174048204529175 -0.319244854540162 0  -1.067618031042359 0.3674567846760797 0  -0.96875 0.109375 0  1.481463366596639 -0.3565498074229692 0  1.023503306098383 -0.3576535124663073 0  -0.2265388519390893 0.1866542405407749 0  0.625 -0.5 0  -1.852445652173913 0.1432065217391304 0  -1.375 0.5 0  -1.479101577239454 0.3541992113802732 0  0.2708871299591885 -0.3541935649795943 0  1.520204106978579 -0.109375 0  0.78125 -0.1026731411563172 0  -0.3125 0.3785994323952442 0  0.3749999999999999 -0.5 0  1.141568346088435 -0.109375 0  1.358431653911565 -0.109375 0  1.668712727161379 -0.1246887081867154 0  -1.673050595238095 0.1226339285714286 0  -1.34375 0 0  -1.431523109243698 0.1313182773109244 0  -0.7546231943577876 0.3660317014105531 0  -0.6233296454587935 0.3645528204344609 0  0.7546231943577878 -0.3660317014105531 0  0.6537002726710706 -0.125 0  -0.6441338591766993 0.125 0  1.375 -0.5 0  -2 0.375 0  -1.875 0.5 0  1.625 -0.5 0  -1.625 0.5 0  0.875 -0.5 0  -0.875 0.5 0  0.1249999999999999 -0.5 0  -0.125 0.5 0  2 -0.125 0  -1.125 0.5 0  -1.354082022940739 0.375 0  -0.03500388138134332 0.2732363193989585 0  0.3955099577726473 -0.3752808566622692 0  0.3596026196703111 0.0631070919012526 0  -0.0625 0.394061918116807 0  0.6342080192637126 -0.3582597885274255 0  -1.123666900137815 0.109375 0  -1.744588744588745 0.3803841991341991 0  0.2210084381421171 0.2925777566973838 0  0.8072251313743133 -0.2315819627814412 0  -0.1814335426834733 -0.3282792760620681 0  -0.9356634513979559 0.2218154628239019 0  0.4183753556420685 -0.1414382112841371 0  -0.1238894550978499 -0.2292394949250368 0  0.96875 0 0  1.013652292192466 -0.1102204462032291 0  -0.4393328341626322 0.09834605222123384 0  1.882206434331873 -0.2686982850037661 0  0.1426699461850768 0.2146575767791519 0  -1.886304127069339 0.251758104550396 0  0.2495743011762567 0.06264742837969955 0  -0.78125 0 0  0.04042933102838756 -0.2590839715717854 0  -1.53125 0 0  -0.5823692714154002 0.2663576540687616 0  -0.2594008044921133 0.2871583817002197 0  -0.9375 0.4157678007976423 0  0.9696186653311423 -0.2675997292662616 0  -0.7942971416386473 0.2646257048857303 0  0.06249999999999992 -0.4169388545076413 0  0.1874999999999999 -0.4169388545076413 0  -1.562839467699977 0.2864000626355251 0  -0.1875 0.4157529178973974 0  -0.1223698320396133 0.2179970721626365 0  1.770639498024741 -0.1399156735731578 0  0.9367002721196375 -0.4157324987180338 0  -1.90625 0 0  -0.2298618769854927 -0.08904896555277285 0  0.1397131066802196 -0.232031643549068 0  -0.4375 0.420861596936145 0  -0.3483554784186823 -0.1925292675214375 0  0.59375 0 0  -1.327632151430252 0.1057660692693074 0  -0.9830051201906395 0.3115204496273563 0  1.90625 0 0  1.236354269160391 -0.3993990952861421 0  -1.1875 0.4214935578661845 0  0.5625 -0.4247705455161483 0  -0.7349377422908023 0.1635199768201956 0  -1.583328550170068 0.08705835459183674 0  -1.640104497493491 0.2259991665335075 0  -1.467109316827997 0.2210671404637805 0  0.5896070530325394 -0.2690578560650788 0  0.3266472067106532 -0.167734762534917 0  -0.59375 0 0  -0.546875 0.08448914438556519 0  1.71875 0 0  1.156078290691277 -0.2031315651260504 0  1.337704613095238 -0.2433035714285714 0  1.236312294597949 -0.09486607142857142 0  0.1642123379155914 0.3701207892454864 0  0.2345507206108115 -0.04384512844718241 0  -0.4048861533022036 -0.02273791864794379 0  0.03798857341016919 0.3979165301900267 0  -0.4006523628802168 0.334179001454817 0  -0.1135990210174155 -0.393340785880617 0  1.906775738056482 -0.3598876272511091 0  1.720393990929705 -0.4044642857142857 0  -1.71875 0 0  1.15625 0 0  0.78125 0 0  1.53125 0 0  -0.96875 0 0  1.34375 0 0  -1.15625 0 0  1.142828909845958 -0.4078056758504979 0  0.40697192225457 -0.01923608979840619 0  -1.767708120728825 0.08966855818957545 0  -0.6882384924227143 0.4308047125515967 0  -0.3636785153797087 0.1553944795036722 0  -0.2291274285977749 0.08616080495998404 0  -0.281012338688557 -0.01202669255906096 0  0.3108677056378212 0.2586754570559801 0  -1.151751953043632 0.196872287087452 0  -0.5625 0.4330368698813529 0  0.6875 -0.4328910527173583 0  1.405021000845949 -0.3057191080886871 0  0.546875 -0.08025568181818182 0  0.3713523302229579 0.1599284134935842 0  -1.12196127795563 0.2911449911382941 0  -1.276991293863022 0.2522534749828799 0  1.255195006158927 -0.2798057638555942 0  -0.8388532729558951 0.4114132763440825 0  0.8388532729558953 -0.4114132763440825 0  -0.4557763550657601 0.2486174768248819 0  0.2049883534781638 -0.2934473685517857 0  0.3226059585583683 -0.4273378498573185 0  -1.426982449282418 0.4270508114904024 0  1.397702183984896 -0.4056170514003312 0  0.05467855045156804 0.2285245978493705 0  -0.272823163096586 -0.3046204408381326 0  -0.02656096412551515 -0.4126877256833236 0  -1.807235369718798 0.2933328120993839 0  0.1906985117418444 0.1399478964461678 0  -1.688085622354259 0.3115694793217502 0  1.659329587961023 -0.2879395206246994 0  -1.5625 0.437202380952381 0  1.546313524296827 -0.4210926184041992 0  -1.813279560389256 0.4363923695021056 0  -1.926524548924358 0.4265245489243581 0  -0.1751061200004134 -0.1578066000831913 0  0.2891187728554643 -0.268298186700636 0  0.4721679687499999 -0.2490234375 0  0.7276683718449491 -0.1720688736051095 0  0.4744973194747868 -0.4152356216385488 0  0.9322020604693165 -0.07914563824612769 0  -1.275602471792197 0.4154857864535745 0  -0.828125 0.07552171441918698 0  1.3125 -0.5 0  -1.931646474339171 0.178059096704675 0  -0.7167268019830385 0.08016211756451477 0  1.060414578698922 -0.4368616551407768 0  -1.6875 0.5 0  1.9375 -0.5 0  1.739833210773432 -0.3220974693894793 0  -2 0.3125 0  -1.207440692409131 0.07848980221212992 0  -0.04055821595704934 -0.2377097412335854 0  0.1922531441870086 -0.1190381071624572 0  1.509237778147088 -0.2717758217431455 0  0.8901922386429052 -0.2437760747352658 0  -1.498530569603453 0.07867879855510211 0  0.9849923856958628 -0.1870513965806273 0  1.515605916195201 -0.1906351698786736 0  1.439317880445072 -0.08458133750179306 0  1.932491348856277 -0.2050969650933771 0  1.828075655121533 -0.08087981225769847 0  1
[...]
<PointData  Vectors="f_39"> 
<DataArray  type="Float64"  Name="f_39"  NumberOfComponents="3" format="ascii">2.6302696479537751e+01 -2.1267353456656181e+01 0.0000000000000000e+00  1.0015724465333546e+00 -2.7448340539478999e+00 0.0000000000000000e+00  1.5125694073928202e+02 -8.2979916631069429e+01 0.0000000000000000e+00  1.3602780377709499e+02 -8.8949705359549299e+01 0.0000000000000000e+00  1.2941308921388284e+02 -8.5526508620616823e+01 0.0000000000000000e+00  1.2076983668807446e+02 -8.0095197294373932e+01 0.0000000000000000e+00  1.1837633957452719e+02 -7.3979287980518208e+01 0.0000000000000000e+00  1.1882947353009008e+02 -6.8607212196683008e+01 0.0000000000000000e+00  1.1875574428616702e+02 -6.4425135998874538e+01 0.0000000000000000e+00  1.1986668925782938e+02 -6.1590380302391708e+01 0.0000000000000000e+00  1.2281129661448601e+02 -5.5054769909350547e+01 0.0000000000000000e+00  1.2346404678706853e+02 -5.3106453426702402e+01 0.0000000000000000e+00  1.2516613629609695e+02 -4.9948985974775773e+01 0.0000000000000000e+00  1.2671951917414816e+02 -4.7000286701466280e+01 0.0000000000000000e+00  1.2802411137816176e+02 -4.4717464455268747e+01 0.0000000000000000e+00  1.3138299795873382e+02 -3.9378276273969824e+01 0.0000000000000000e+00  1.3495270437712634e+02 -3.8656389456868453e+01 0.0000000000000000e+00  1.8112940350235118e+02 3.9717274593194428e-02 0.0000000000000000e+00  1.8610573694887364e+02 -3.2691347784289199e-01 0.0000000000000000e+00  1.6891583728668559e+02 -8.7987891743413442e+01 0.0000000000000000e+00  1.4910369877740106e+02 -9.6254616495540247e+01 0.0000000000000000e+00  1.3739859790902798e+02 -9.0199296621313280e+01 0.0000000000000000e+00  1.3246881398986179e+02 -8.5336831244713196e+01 0.0000000000000000e+00  1.2765131130413292e+02 -7.8968036919813613e+01 0.0000000000000000e+00  1.2586284182086868e+02 -7.2982031617203447e+01 0.0000000000000000e+00  1.2755775897530796e+02 -6.7862596230622600e+01 0.0000000000000000e+00  1.2819350069526013e+02 -6.4917694914571570e+01 0.0000000000000000e+00  1.2921006143027265e+02 -6.1392580630138177e+01 0.0000000000000000e+00  1.2893705693859937e+02 -5.9383305064070150e+01 0.0000000000000000e+00  1.3224416856438938e+02 -5.4501290029870766e+01 0.0000000000000000e+00  1.3281861374575558e+02 -5.1987159313973045e+01 0.0000000000000000e+00  1.3553521242124083e+02 -4.9003425487761440e+01 0.0000000000000000e+00  1.3729330577222572e+02 -4.7598735189794205e+01 0.0000000000000000e+00  1.4209845766362471e+02 -4.5105750347058688e+01 0.0000000000000000e+00  1.4120220662962691e+02 -7.3065610660227691e+01 0.0000000000000000e+00  1.3759805842178341e+02 -6.7834433651699712e+01 0.0000000000000000e+00  1.3474110056524012e+02 -5.5528274709746462e+01 0.0000000000000000e+00  1.3768518897394193e+02 -4.6815281702932324e+01 0.0000000000000000e+00  1.4532802418392032e+02 -4.1079422305677625e+01 0.0000000000000000e+00  1.5235697830645046e+02 -4.3402277246021924e+01 0.0000000000000000e+00  1.5101030745783538e+02 -6.1091550220067418e+01 0.0000000000000000e+00  1.4497889632863519e+02 -7.0060119441941140e+01 0.0000000000000000e+00  1.3676009523330461e+02 -7.3616869697084240e+01 0.0000000000000000e+00  1.2818510589299305e+02 -7.0630803841962603e+01 0.0000000000000000e+00  1.2441572546032147e+02 -6.3201633759188120e+01 0.0000000000000000e+00  1.3230392524220420e+02 -5.1030414455773354e+01 0.0000000000000000e+00  1.4013566727360157e+02 -4.5588089622706015e+01 0.0000000000000000e+00  1.4964362489398206e+02 -4.4824205730430229e+01 0.0000000000000000e+00  1.5473290020008434e+02 -5.6837386208033017e+01 0.0000000000000000e+00  1.5307043704931365e+02 -6.0870167253337200e+01 0.0000000000000000e+00  1.4612977235470410e+02 -7.3106321387155006e+01 0.0000000000000000e+00  1.8146243142541613e+02 -8.9203421036000066e+01 0.0000000000000000e+00  1.7704825005844961e+02 -1.5708848757654877e+01 0.0000000000000000e+00  1.2347715895555605e+02 -1.0666198500543916e+02 0.0000000000000000e+00  1.6764199630229294e+02 -5.7858178206723949e+01 0.0000000000000000e+00  1.8740572444120664e+02 -1.0460602261264148e+01 0.0000000000000000e+00  1.6197527304848731e+02 -2.8602399671291565e+01 0.0000000000000000e+00  1.9266468949800864e+02 -1.7602569421575495e+02 0.0000000000000000e+00  1.7952722017716980e+02 -5.9243374719669282e+00 0.0000000000000000e+00  1.4540560044391302e+02 -7.4529102320062862e+01 0.0000000000000000e+00  1.9176987687911674e+02 -2.1001783691801435e+01 0.0000000000000000e+00  8.7168016573607645e+01 -1.6441331658254856e+02 0.0000000000000000e+00  1.8648434886607802e+02 -4.3891953845336564e+00 0.0000000000000000e+00  1.7934765779338841e+02 -3.1292056700224460e+01 0.0000000000000000e+00  1.6051852770575860e+02 -7.1622791224339593e+01 0.0000000000000000e+00  1.4227547628767754e+01 -9.3753205297541129e+00 0.0000000000000000e+00  1.8030889193770724e+02 -2.1768053065789257e+00 0.0000000000000000e+00  1.4892385461036162e+02 -3.2057218868180662e+01 0.0000000000000000e+00  1.5161203632128110e+02 -6.0392718147637119e+01 0.0000000000000000e+00  1.5946263715666169e+02 -4.5109011495490705e+01 0.0000000000000000e+00  1.5646275899535513e+02 -9.6956607450844075e+01 0.0000000000000000e+00  1.8400599783125665e+02 -1.5324961026497231e+01 0.0000000000000000e+00  2.0245862860618053e+02 -2.3131631371072771e+02 0.0000000000000000e+00  1.9030327498708974e+02 -1.1507400395078044e+02 0.0000000000000000e+00  1.5134921821212305e+02 -1.3589560478091960e+02 0.0000000000000000e+00  1.8400339289447712e+02 -7.4479983939509022e+00 0.0000000000000000e+00  1.8353675293238618e+02 -2.4670408371378949e-01 0.0000000000000000e+00  1.7873872631977366e+02 -1.0221135044014673e+01 0.0000000000000000e+00  1.8352123297701371e+02 -3.2123589780093020e+00 0.0000000000000000e+00  1.1517673074892490e+02 -2.2170866221953747e+02 0.0000000000000000e+00  1.7225161159349861e+02 -2.1659416657110839e+01 0.0000000000000000e+00  1.7333903677634575e+02 -7.2931699778183329e+01 0.0000000000000000e+00  1.5394416865271018e+02 -4.7918972402045029e+01 0.0000000000000000e+00  1.4783426575489747e+02 -5.1352983045711277e+01 0.0000000000000000e+00  1.4488258159656732e+02 -4.1780032153315233e+01 0.0000000000000000e+00  1.6629660882095928e+02 -8.2320312549288417e+01 0.0000000000000000e+00  1.7968661836532473e+02 -2.0423084426958649e+01 0.0000000000000000e+00  1.8420913179725670e+02 -1.1009716591444885e+01 0.0000000000000000e+00  1.8730401452283004e+02 -7.3801508590546803e+00 0.0000000000000000e+00  1.0705394329846339e+02 -1.3181854755015556e+02 0.0000000000000000e+00  1.8938335834887056e+02 -1.3652759046533198e+01 0.0000000000000000e+00  1.3625992113083331e+02 -8.7191343204390094e+01 0.0000000000000000e+00  1.5424560139540984e+02 -6.7563875658745800e+01 0.0000000000000000e+00  1.9697298193822252e+02 -3.2293565694299303e+01 0.0000000000000000e+00  1.8614318050398231e+02 -1.8024520610273342e+00 0.0000000000000000e+00  6.5074307541480962e+01 -1.8886122967712447e+02 0.0000000000000000e+00  1.5229836967297024e+02 -6.3272644649994653e+01 0.0000000000000000e+00  1.2639900693574515e+02 -1.6738198170023253e+02 0.0000000000000000e+00  1.4168449128181305e+02 -5.6200732060879190e+01 0.0000000000000000e+00  1.3047182302254731e+02 -6.4710422244461284e+01 0.0000000000000000e+00  1.7057566069841687e+02 -2.0344480640503602e+02 0.0000000000000000e+00  1.8161305225637739e+02 -4.6475121786199116e+00 0.0000000000000000e+00  1.3879306898097457e+02 -7.0677881557197807e+01 0.0000000000000000e+00  1.4120334516152843e+02 -6.7935468192268488e+01 0.0000000000000000e+00  1.3054124904389195e+02 -3.2249449322504989e+02 0.0000000000000000e+00  1.8215617053955359e+02 -2.9579250918580136e-01 0.0000000000000000e+00  1.8116885118305049e+02 -1.2707331025513986e+00 0.0000000000000000e+00  1.3858263078583923e+02 -4.9372964631963228e+01 0.0000000000000000e+00  1.8158222777824417e+02 -9.4452163824685140e+00 0.0000000000000000e+00  1.7800057866214098e+02 -1.2783597864746707e+01 0.0000000000000000e+00  1.6595617518323090e+02 -1.1404122956111256e+02 0.0000000000000000e+00  1.5626425122322269e+02 -6.8325699669250326e+01 0.0000000000000000e+00  1.8629032168455174e+02 -2.0865865975779897e+01 0.0000000000000000e+00  1.5536437398135899e+02 -7.8012594269912981e+01 0.0000000000000000e+00  1.4464866055658172e+02 -1.1605340024701415e+02 0.0000000000000000e+00  1.6046468430294951e+02 -6.2146569998995005e+01 0.0000000000000000e+00  1.7799322185457751e+02 -4.5563643440893010e+01 0.0000000000000000e+00  1.6645450484240681e+02 -3.5225630705157243e+01 0.0000000000000000e+00  7.9655649921903988e+00 -5.2835322049661579e+00 0.0000000000000000e+00  1.8471084750686990e+02 -1.4901935503626820e+00 0.0000000000000000e+00  1.4856068204664206e+02 -4.8330960009591045e+01 0.0000000000000000e+00  1.7119399478207035e+02 -6.5815809146382591e+01 0.0000000000000000e+00  1.8361035327841907e+02 -5.2179201855991888e+00 0.0000000000000000e+00  1.8202184133303430e+02 -2.0806585463568039e+00 0.0000000000000000e+00  1.3120894017971045e+02 -7.3397742337082079e+01 0.0000000000000000e+00  1.6074645287295303e+02 -5.2132228245839372e+01 0.0000000000000000e+00  1.8153886561513039e+02 -1.2491410750764725e+01 0.0000000000000000e+00  1.6961532471398641e+02 -9.7731414471912615e+01 0.0000000000000000e+00  1.4829421026411589e+02 -8.5811371212427247e+01 0.0000000000000000e+00  1.8164372288862347e+02 -6.7741577419364480e+00 0.0000000000000000e+00  1.8022487149895872e+02 -1.5743222243054342e+01 0.0000000000000000e+00  1.4277848220766393e+02 -5.6127829859667735e+01 0.0000000000000000e+00  1.6789213608905760e+02 -2.5502270326301556e+01 0.0000000000000000e+00  6.3075573460419079e+01 -2.1981217549704070e+02 0.0000000000000000e+00  1.9423514395505984e+02 -1.3753690815229217e+02 0.0000000000000000e+00  1.7200511989652512e+02 -1.6579403761923888e+02 0.0000000000000000e+00  1.5217224164864072e+02 -3.9992241930460864e+01 0.0000000000000000e+00  1.8537761453748763e+02 -6.0879685358476845e+00 0.0000000000000000e+00  1.8957176354485651e+02 -2.6418105519179576e+01 0.0000000000000000e+00  1.5378343548619026e+02 -5.3772469711762902e+01 0.0000000000000000e+00  1.5558223006174350e+02 -3.1293933069884300e+01 0.0000000000000000e+00  1.8647700236254931e+02 -1.2934565844800705e+01 0.0000000000000000e+00  1.8569957841432307e+02 -8.8726043378639812e+00 0.0000000000000000e+00  1.8494508176164297e+02 -4.1054179683565364e+00 0.0000000000000000e+00  1.0100100578874039e+02 -1.8921338591587033e+02 0.0000000000000000e+00  1.1606613623041997e+02 -1.2093854887810444e+02 0.0000000000000000e+00  1.2661999312616460e+02 -1.4287854304588640e+02 0.0000000000000000e+00  1.6704600368433950e+02 -7.3893751701893478e+01 0.0000000000000000e+00  1.6502097178311112e+02 -6.7516840337550661e+01 0.0000000000000000e+00  1.7531967971704393e+02 -2.4624724623083303e+01 0.0000000000000000e+00  1.8721513819731743e+02 -3.6017102538219206e+01 0.0000000000000000e+00  1.5723246445120512e+02 -7.0190263778267749e+01 0.0000000000000000e+00  1.7966327841170101e+02 -8.3861520544431389e+00 0.0000000000000000e+00  2.1025588436793790e+01 -1.4429421116936339e+01 0.0000000000000000e+00  1.6396616840028261e+02 -4.0847930801173550e+02 0.0000000000000000e+00  1.7982527491418793e+02 -4.3186091143388143e+00 0.0000000000000000e+00  2.0126712891489206e+02 -2.0771505138464329e+02 0.0000000000000000e+00  1.7490534643542244e+02 -1.8283462733035854e+01 0.0000000000000000e+00  1.7366321885958223e+02 -7.9187752930857997e+01 0.0000000000000000e+00  1.4172223358791183e+02 -3.3620196421264282e+01 0.0000000000000000e+00  1.4814273795027736e+02 -4.5492633922319840e+01 0.0000000000000000e+00  1.8490663011684066e+02 -3.0096161458002041e-01 0.0000000000000000e+00  1.8148308186555317e+02 -1.0460297957342996e+02 0.0000000000000000e+00  1.7597538490179829e+02 -1.3778986502420346e+02 0.0000000000000000e+00  1.4666981292394667e+02 -5.1502796125972630e+01 0.0000000000000000e+00  1.5891835368939235e+02 -3.6240246935579869e+01 0.0000000000000000e+00  1.4530983334252821e+02 -7.6606729524255030e+01 0.0000000000000000e+00  1.4538485362052168e+02 -4.8735055184523624e+01 0.0000000000000000e+00  1.7259744434638040e+02 -2.9469600875172048e+01 0.0000000000000000e+00  1.4165921310588786e+02 -9.8186558967516092e+01 0.0000000000000000e+00  1.7184817117171366e+02 -2.5251650713478779e+02 0.0000000000000000e+00  1.3652800540675435e+02 -6.2359401562275366e+01 0.0000000000000000e+00  1.8301869673166712e+02 -2.4733877740294151e+01 0.0000000000000000e+00  1.3025291497553570e+02 -5.5052941657906253e+01 0.0000000000000000e+00  1.5738615036977862e+02 -8.4664064427752649e+01 0.0000000000000000e+00  1.6581358346323995e+02 -5.6307170754258216e+01 0.0000000000000000e+00  1.3830302413932790e+02 -5.9161156337615537e+01 0.0000000000000000e+00  1.9128575949538498e+02 -1.7414009708603732e+01 0.0000000000000000e+00  1.8761264943786617e+02 -1.6411549451831348e+01 0.0000000000000000e+00  1.5000740044107081e+02 -7.1393425008609654e+01 0.0000000000000000e+00  1.8327050674540098e+02 -1.4586999568617851e+00 0.0000000000000000e+00  1.4420293998542860e+02 -6.3474845573250931e+01 0.0000000000000000e+00  6.8437053903393164e+01 -2.6780585952112267e+02 0.0000000000000000e+00  1.4212068899140564e+02 -7.0469055575382043e+01 0.0000000000000000e+00  1.5027952337787735e+02 -6.9969570498995040e+01 0.0000000000000000e+00  1.4486398999513995e+02 -4.5762502759330935e+01 0.0000000000000000e+00  9.8197309130864497e+01 -1.5241470598476627e+02 0.0000000000000000e+00  1.5988135849908221e+02 -6.7110142607988095e+01 0.0000000000000000e+00  1.4940484370033855e+02 -5.5411412951381102e+01 0.0000000000000000e+00  1.7317741866758681e+02 -8.5161205023269517e+01 0.0000000000000000e+00  1.8241222492619579e+02 -1.8287405143516651e+01 0.0000000000000000e+00  1.6089471944300678e+02 -7.6580001305575493e+01 0.0000000000000000e+00  1.3962453169063144e+02 -3.9969232284030625e+01 0.0000000000000000e+00  1.4690078089020045e+02 -3.6301051452364547e+01 0.0000000000000000e+00  1.5051461500906240e+02 -1.8128581634082403e+02 0.0000000000000000e+00  1.5049579644317456e+02 -4.8586093304208923e+01 0.0000000000000000e+00  1.4462590333910103e+02 -5.0285031882367385e+01 0.0000000000000000e+00  1.8497720926863587e+02 -2.7377623368683954e+00 0.0000000000000000e+00  1.7735185806557158e+02 -1.7431610542737545e+01 0.0000000000000000e+00  5.0185265365784566e+01 -1.8578154870160898e+02 0.0000000000000000e+00  1.3258189149733892e+02 -7.0823257979453047e+01 0.0000000000000000e+00  1.4546255624059623e+02 -4.4310880641812780e+01 0.0000000000000000e+00  1.6241175286562398e+02 -5.6811047997999147e+01 0.0000000000000000e+00  1.2569329845089084e+02 -7.0724845603644965e+01 0.0000000000000000e+00  2.0204044313950757e+02 -4.3392601324442325e+01 0.0000000000000000e+00  1.2965166896072108e+02 -1.2449159591309808e+02 0.0000000000000000e+00  1.6438473093252918e+02 -8.9313178100301826e+01 0.0000000000000000e+00  1.8598813435570958e+02 -8.4209243640229337e-01 0.0000000000000000e+00  1.8027874397393700e+02 -1.1154445600267449e+01 0.0000000000000000e+00  1.7782757819065466e+02 -1.1087780030143202e+02 0.0000000000000000e+00  1.6613819284309446e+02 -2.9394337238044127e+01 0.0000000000000000e+00  1.5749657929791033e+02 -7.2946539044038303e+01 0.0000000000000000e+00  1.0431748589262291e+02 -1.6690795830106117e+02 0.0000000000000000e+00  1.2380472398783117e+02 -1.9605688793142926e+02 0.0000000000000000e+00  1.3968948287439449e+02 -1.5681809107243024e+02 0.0000000000000000e+00  1.7438279847275348e+02 -3.5814659985074748e+01 0.0000000000000000e+00  1.5594178098406738e+02 -5.3244088887310014e+01 0.0000000000000000e+00  1.5919270428145657e+02 -6.8530291953385188e+01 0.0000000000000000e+00  1.5810839376968644e+02 -7.1711881612942761e+01 0.0000000000000000e+00  1.8635177574732080e+02 -3.3562149618612467e+00 0.0000000000000000e+00  1.8421228054134272e+02 -1.3098932128942593e+01 0.0000000000000000e+00  1.8328580104478561e+02 -9.3716304079153119e+00 0.0000000000000000e+00  1.8621683610668865e+02 -1.0971827400647033e+01 0.0000000000000000e+00  1.3641456065444541e+02 -5.6674084200346584e+01 0.0000000000000000e+00  1.4262669563666685e+02 -6.0318477857486570e+01 0.0000000000000000e+00  1.3838206881803848e+02 -7.9908522999724326e+01 0.0000000000000000e+00  1.4146282430661645e+02 -5.0028209207027437e+01 0.0000000000000000e+00  1.5656152437130632e+02 -5.7547903352510751e+01 0.0000000000000000e+00  1.3145543295072841e+02 -4.8067186798664878e+01 0.0000000000000000e+00  1.8228755200591704e+02 -9.8104324634826279e-01 0.0000000000000000e+00  1.8134359982818586e+02 -2.9172122089712085e+00 0.0000000000000000e+00  7.6242782861747926e+01 -1.8289592297425830e+02 0.0000000000000000e+00  1.8837569102814285e+02 -1.1520395706176505e+01 0.0000000000000000e+00  1.9464291919083718e+02 -2.5281305150175545e+01 0.0000000000000000e+00  1.8674109573336074e+02 -5.6761374979024826e+00 0.0000000000000000e+00  1.4100179982229591e+02 -8.1718029499174392e+01 0.0000000000000000e+00  1.8717599051910597e+02 -8.9079343390710335e+00 0.0000000000000000e+00  1.2846971828610816e+02 -9.5135916274290551e+01 0.0000000000000000e+00  1.7978005496671204e+02 -1.2620357461496752e+01 0.0000000000000000e+00  1.6207076904807860e+02 -7.4948447419888936e+01 0.0000000000000000e+00  8.0195493146248992e+01 -1.9779515226783354e+02 0.0000000000000000e+00  1.6958818001033518e+02 -6.9804812973429975e+01 0.0000000000000000e+00  1.4757949632183079e+02 -6.4553955567384051e+01 0.0000000000000000e+00  1.3603777889476405e+02 -6.0366123720705133e+01 0.0000000000000000e+00  1.3411473350795308e+02 -7.0372174222333797e+01 0.0000000000000000e+00  1.3209630046766932e+02 -6.8203119931549978e+01 0.0000000000000000e+00  1.5075640734065271e+02 -1.0606654046622916e+02 0.0000000000000000e+00  1.6659102529158079e+02 -6.3196011198022170e+01 0.0000000000000000e+00  1.7192667428989125e+02 -2.4746003012606820e+01 0.0000000000000000e+00  1.8221469839284717e+02 -8.3757409006469636e+00 0.0000000000000000e+00  1.8775355070170070e+02 -5.5319931990471758e+01 0.0000000000000000e+00  1.3701257060386683e+02 -7.6679224393038652e+01 0.0000000000000000e+00  1.6216929126739373e+02 -1.0348842501022071e+02 0.0000000000000000e+00  1.5478533701790454e+02 -1.2475810886779081e+02 0.0000000000000000e+00  1.8262106989326256e+02 -1.0911103383713238e+01 0.0000000000000000e+00  1.7049350846429468e+02 -7.7227046229505177e+01 0.0000000000000000e+00  1.7616287549691125e+02 -2.0539657367754877e+01 0.0000000000000000e+00  1.5481118728053011e+02 -6.4003613765869801e+01 0.0000000000000000e+00  1.4934297819353495e+02 -4.2552140345053516e+01 0.0000000000000000e+00  1.5378414191957259e+02 -3.5406129413260729e+01 0.0000000000000000e+00  1.8792938333724567e+02 -1.5331862211773930e+02 0.0000000000000000e+00  1.8060538876077825e+02 -8.1476797188650174e+00 0.0000000000000000e+00  1.4803253578656543e+02 -5.7624660832006214e+01 0.0000000000000000e+00  1.2496583950906673e+02 -6.0299464363901485e+01 0.0000000000000000e+00  1.3606315084295477e+02 -4.3606431326334302e+01 0.0000000000000000e+00  1.1875066091427630e+02 -2.5949943300753489e+02 0.0000000000000000e+00  1.4320241075229100e+02 -6.9396148337717975e+01 0.0000000000000000e+00  1.4507074512934111e+02 -2.1901197934382853e+02 0.0000000000000000e+00  1.8268448187331433e+02 -4.0973305722537345e+00 0.0000000000000000e+00  1.8872483934783381e+02 -1.8475897754815125e+02 0.0000000000000000e+00  1.8084920139251531e+02 -5.7805124883738008e+00 0.0000000000000000e+00  2.0771821633624739e+02 -3.0226218053435144e+02 0.0000000000000000e+00  1.3290579443482036e+02 -3.9394969279068334e+02 0.0000000000000000e+00  1.3643793316829152e+02 -6.8180633834943663e+01 0.0000000000000000e+00  1.5245299317991712e+02 -4.3846730823757156e+01 0.0000000000000000e+00  1.6697071235222609e+02 -4.2992893822395857e+01 0.0000000000000000e+00  1.8481724055260852e+02 -3.0621539488489489e+01 0.0000000000000000e+00  1.6248853319495683e+02 -3.2361266598272110e+01 0.0000000000000000e+00  1.8962479404758719e+02 -1.9422362002046412e+01 0.0000000000000000e+00  1.8039761866523176e+02 -1.2381139381874979e+02 0.0000000000000000e+00  1.50806643565