<?xml version="1.0"?>
<VTKFile type="UnstructuredGrid"  version="0.1"  >
<UnstructuredGrid>
<Piece  NumberOfPoints="1981" NumberOfCells="3668">
<Points>
<DataArray  type="Float64"  NumberOfComponents="3"  format="ascii">-2 0.5 0  -2 0 0  -0.5 0 0  -0.4968561049466213 -0.05598223805165387 0  -0.4874639560909119 -0.1112604669781569 0  -0.4719416651541838 -0.1651395309775835 0  -0.4504844339512096 -0.216941869558779 0  -0.4233620996141421 -0.2660160382576682 0  -0.3909157412340148 -0.3117449009293669 0  -0.3535533905932738 -0.3535533905932737 0  -0.3117449009293669 -0.3909157412340148 0  -0.2660160382576683 -0.4233620996141421 0  -0.2169418695587791 -0.4504844339512095 0  -0.1651395309775836 -0.4719416651541837 0  -0.1112604669781573 -0.4874639560909118 0  -0.05598223805165402 -0.4968561049466213 0  -9.184850993605148e-17 -0.5 0  2 -0.5 0  2 0 0  0.5 0 0  0.4968561049466213 0.05598223805165393 0  0.4874639560909118 0.1112604669781572 0  0.4719416651541838 0.1651395309775835 0  0.4504844339512096 0.2169418695587791 0  0.4233620996141421 0.2660160382576683 0  0.3909157412340149 0.3117449009293667 0  0.3535533905932738 0.3535533905932737 0  0.3117449009293668 0.3909157412340149 0  0.2660160382576683 0.4233620996141421 0  0.2169418695587791 0.4504844339512096 0  0.1651395309775837 0.4719416651541837 0  0.1112604669781572 0.4874639560909118 0  0.05598223805165384 0.4968561049466213 0  3.061616997868383e-17 0.5 0  0.1398708344106534 0.05418624992807294 0  0.15 0 0  0.1398708344106534 -0.05418624992807295 0  0.1108513375830988 -0.1010543465469837 0  0.06686075336648065 -0.1342744937032594 0  0.01384025391949536 -0.1493601264442552 0  -0.04104944851081246 -0.1442738464759228 0  -0.09039519545688858 -0.1197025840920358 0  -0.1275325703594421 -0.07896482443160337 0  -0.1474459649525853 -0.02756242767248552 0  -0.1474459649525853 0.02756242767248555 0  -0.1275325703594421 0.07896482443160341 0  -0.09039519545688844 0.1197025840920359 0  -0.04104944851081243 0.1442738464759228 0  0.0138402539194953 0.1493601264442552 0  0.06686075336648074 0.1342744937032593 0  0.1108513375830989 0.1010543465469836 0  -1 0.5 0  1 -0.5 0  -1.25 0 0  -0.5 0.5 0  1.25 0 0  0.4999999999999999 -0.5 0  -1.5 0.5 0  1.5 -0.5 0  -0.875 0 0  0.875 0 0  -1.625 0 0  1.625 0 0  0.6875 -0.2500000000000001 0  -0.6875 0.25 0  -2 0.25 0  1.75 -0.5 0  0.2499999999999999 -0.5 0  -0.3583969912126916 0.25 0  0.3749999999999999 -0.25 0  -1.0625 0.21875 0  1.0625 -0.21875 0  -1.75 0.5 0  -1.25 0.5 0  -1.375 0.25 0  1.4375 -0.21875 0  2 -0.25 0  1.25 -0.5 0  1.7375 -0.2375 0  -1.7375 0.2375 0  0.75 -0.5 0  -0.75 0.5 0  -0.25 0.5 0  -0.1570377317087672 0.3153742794659282 0  0.1249999999999999 -0.3338777090152827 0  -0.8826650943396226 0.3263561320754717 0  0.8826650943396227 -0.3263561320754717 0  1.25 -0.1897321428571428 0  1.4375 0 0  -1.4375 0 0  1.0625 0 0  -1.0625 0 0  -0.6875 0 0  0.6875 0 0  1.8125 0 0  -1.8125 0 0  0.3263011380546194 -0.06940056902730968 0  -1.554017857142857 0.1790178571428572 0  0.08847100915780901 0.3109433440851622 0  -0.2412983234264066 -0.2156373655531345 0  -1.625 0.3744047619047619 0  1.625 -0.3744047619047619 0  0.2743272717766799 0.1698562554772697 0  -0.3279338175957848 0.06764246763930631 0  -1.863068181818182 0.3630681818181818 0  2 -0.375 0  1.875 -0.5 0  -0.05442366733490933 -0.3203147637646457 0  1.321986607142857 -0.3448660714285714 0  1.125 -0.5 0  -1.209821428571429 0.3236607142857143 0  -0.5229484956063458 0.1781011282952406 0  0.9067445847815293 -0.1625224987586892 0  -0.8335714777578845 0.1642411083184135 0  -1.237063437253354 0.1627182813733228 0  -0.4947697009489606 0.3378596801347012 0  0.53125 -0.171875 0  0.5156249999999999 -0.3359375 0  -2 0.125 0  1.873225308641975 -0.1497685185185185 0  0.2341337966231563 -0.1911191776024666 0  -0.625 0.5 0  1.587453076345555 -0.2288757784711196 0  1.8125 -0.3654761904761905 0  -0.3326862624810256 -0.08869875963335262 0  -0.375 0.5 0  1.174048204529175 -0.319244854540162 0  -1.067618031042359 0.3674567846760797 0  -0.96875 0.109375 0  1.481463366596639 -0.3565498074229692 0  1.023503306098383 -0.3576535124663073 0  -0.2265388519390893 0.1866542405407749 0  0.625 -0.5 0  -1.852445652173913 0.1432065217391304 0  -1.375 0.5 0  -1.479101577239454 0.3541992113802732 0  0.2708871299591885 -0.3541935649795943 0  1.520204106978579 -0.109375 0  0.78125 -0.1026731411563172 0  -0.3125 0.3785994323952442 0  0.3749999999999999 -0.5 0  1.141568346088435 -0.109375 0  1.358431653911565 -0.109375 0  1.668712727161379 -0.1246887081867154 0  -1.673050595238095 0.1226339285714286 0  -1.34375 0 0  -1.431523109243698 0.1313182773109244 0  -0.7546231943577876 0.3660317014105531 0  -0.6233296454587935 0.3645528204344609 0  0.7546231943577878 -0.3660317014105531 0  0.6537002726710706 -0.125 0  -0.6441338591766993 0.125 0  1.375 -0.5 0  -2 0.375 0  -1.875 0.5 0  1.625 -0.5 0  -1.625 0.5 0  0.875 -0.5 0  -0.875 0.5 0  0.1249999999999999 -0.5 0  -0.125 0.5 0  2 -0.125 0  -1.125 0.5 0  -1.354082022940739 0.375 0  -0.03500388138134332 0.2732363193989585 0  0.3955099577726473 -0.3752808566622692 0  0.3596026196703111 0.0631070919012526 0  -0.0625 0.394061918116807 0  0.6342080192637126 -0.3582597885274255 0  -1.123666900137815 0.109375 0  -1.744588744588745 0.3803841991341991 0  0.2210084381421171 0.2925777566973838 0  0.8072251313743133 -0.2315819627814412 0  -0.1814335426834733 -0.3282792760620681 0  -0.9356634513979559 0.2218154628239019 0  0.4183753556420685 -0.1414382112841371 0  -0.1238894550978499 -0.2292394949250368 0  0.96875 0 0  1.013652292192466 -0.1102204462032291 0  -0.4393328341626322 0.09834605222123384 0  1.882206434331873 -0.2686982850037661 0  0.1426699461850768 0.2146575767791519 0  -1.886304127069339 0.251758104550396 0  0.2495743011762567 0.06264742837969955 0  -0.78125 0 0  0.04042933102838756 -0.2590839715717854 0  -1.53125 0 0  -0.5823692714154002 0.2663576540687616 0  -0.2594008044921133 0.2871583817002197 0  -0.9375 0.4157678007976423 0  0.9696186653311423 -0.2675997292662616 0  -0.7942971416386473 0.2646257048857303 0  0.06249999999999992 -0.4169388545076413 0  0.1874999999999999 -0.4169388545076413 0  -1.562839467699977 0.2864000626355251 0  -0.1875 0.4157529178973974 0  -0.1223698320396133 0.2179970721626365 0  1.770639498024741 -0.1399156735731578 0  0.9367002721196375 -0.4157324987180338 0  -1.90625 0 0  -0.2298618769854927 -0.08904896555277285 0  0.1397131066802196 -0.232031643549068 0  -0.4375 0.420861596936145 0  -0.3483554784186823 -0.1925292675214375 0  0.59375 0 0  -1.327632151430252 0.1057660692693074 0  -0.9830051201906395 0.3115204496273563 0  1.90625 0 0  1.236354269160391 -0.3993990952861421 0  -1.1875 0.4214935578661845 0  0.5625 -0.4247705455161483 0  -0.7349377422908023 0.1635199768201956 0  -1.583328550170068 0.08705835459183674 0  -1.640104497493491 0.2259991665335075 0  -1.467109316827997 0.2210671404637805 0  0.5896070530325394 -0.2690578560650788 0  0.3266472067106532 -0.167734762534917 0  -0.59375 0 0  -0.546875 0.08448914438556519 0  1.71875 0 0  1.156078290691277 -0.2031315651260504 0  1.337704613095238 -0.2433035714285714 0  1.236312294597949 -0.09486607142857142 0  0.1642123379155914 0.3701207892454864 0  0.2345507206108115 -0.04384512844718241 0  -0.4048861533022036 -0.02273791864794379 0  0.03798857341016919 0.3979165301900267 0  -0.4006523628802168 0.334179001454817 0  -0.1135990210174155 -0.393340785880617 0  1.906775738056482 -0.3598876272511091 0  1.720393990929705 -0.4044642857142857 0  -1.71875 0 0  1.15625 0 0  0.78125 0 0  1.53125 0 0  -0.96875 0 0  1.34375 0 0  -1.15625 0 0  1.142828909845958 -0.4078056758504979 0  0.40697192225457 -0.01923608979840619 0  -1.767708120728825 0.08966855818957545 0  -0.6882384924227143 0.4308047125515967 0  -0.3636785153797087 0.1553944795036722 0  -0.2291274285977749 0.08616080495998404 0  -0.281012338688557 -0.01202669255906096 0  0.3108677056378212 0.2586754570559801 0  -1.151751953043632 0.196872287087452 0  -0.5625 0.4330368698813529 0  0.6875 -0.4328910527173583 0  1.405021000845949 -0.3057191080886871 0  0.546875 -0.08025568181818182 0  0.3713523302229579 0.1599284134935842 0  -1.12196127795563 0.2911449911382941 0  -1.276991293863022 0.2522534749828799 0  1.255195006158927 -0.2798057638555942 0  -0.8388532729558951 0.4114132763440825 0  0.8388532729558953 -0.4114132763440825 0  -0.4557763550657601 0.2486174768248819 0  0.2049883534781638 -0.2934473685517857 0  0.3226059585583683 -0.4273378498573185 0  -1.426982449282418 0.4270508114904024 0  1.397702183984896 -0.4056170514003312 0  0.05467855045156804 0.2285245978493705 0  -0.272823163096586 -0.3046204408381326 0  -0.02656096412551515 -0.4126877256833236 0  -1.807235369718798 0.2933328120993839 0  0.1906985117418444 0.1399478964461678 0  -1.688085622354259 0.3115694793217502 0  1.659329587961023 -0.2879395206246994 0  -1.5625 0.437202380952381 0  1.546313524296827 -0.4210926184041992 0  -1.813279560389256 0.4363923695021056 0  -1.926524548924358 0.4265245489243581 0  -0.1751061200004134 -0.1578066000831913 0  0.2891187728554643 -0.268298186700636 0  0.4721679687499999 -0.2490234375 0  0.7276683718449491 -0.1720688736051095 0  0.4744973194747868 -0.4152356216385488 0  0.9322020604693165 -0.07914563824612769 0  -1.275602471792197 0.4154857864535745 0  -0.828125 0.07552171441918698 0  1.3125 -0.5 0  -1.931646474339171 0.178059096704675 0  -0.7167268019830385 0.08016211756451477 0  1.060414578698922 -0.4368616551407768 0  -1.6875 0.5 0  1.9375 -0.5 0  1.739833210773432 -0.3220974693894793 0  -2 0.3125 0  -1.207440692409131 0.07848980221212992 0  -0.04055821595704934 -0.2377097412335854 0  0.1922531441870086 -0.1190381071624572 0  1.509237778147088 -0.2717758217431455 0  0.8901922386429052 -0.2437760747352658 0  -1.498530569603453 0.07867879855510211 0  0.9849923856958628 -0.1870513965806273 0  1.515605916195201 -0.1906351698786736 0  1.439317880445072 -0.08458133750179306 0  1.932491348856277 -0.2050969650933771 0  1.828075655121533 -0.08087981225769847 0  1
[...]
<PointData  Vectors="f_39"> 
<DataArray  type="Float64"  Name="f_39"  NumberOfComponents="3" format="ascii">-1.6485886745787663e+09 -8.5467548258518858e+09 0.0000000000000000e+00  2.7628517067638808e+08 -1.9246557288357225e+08 0.0000000000000000e+00  2.9091670099626231e+09 -1.9585923318308964e+09 0.0000000000000000e+00  1.3766816579127614e+09 -2.7232847138544779e+09 0.0000000000000000e+00  8.2213561445030689e+08 -2.1593532972237949e+09 0.0000000000000000e+00  6.9271412676304042e+08 -1.6260385565626302e+09 0.0000000000000000e+00  7.3471510829730451e+08 -1.3995596921083367e+09 0.0000000000000000e+00  8.5524397441043997e+08 -1.2249460881010191e+09 0.0000000000000000e+00  8.8715611629456711e+08 -1.0914495520608423e+09 0.0000000000000000e+00  9.5308677131123853e+08 -9.9717701976803601e+08 0.0000000000000000e+00  1.0997481821489077e+09 -7.9070892639617229e+08 0.0000000000000000e+00  1.1284443592084625e+09 -7.0571751363394964e+08 0.0000000000000000e+00  1.2034034356043761e+09 -5.8070044573619044e+08 0.0000000000000000e+00  1.2696537505633059e+09 -4.6320643915114111e+08 0.0000000000000000e+00  1.3184574298544328e+09 -3.7660130664216924e+08 0.0000000000000000e+00  1.4417609037001424e+09 -1.7986879792548037e+08 0.0000000000000000e+00  1.5822853625217221e+09 -1.2314732883010319e+08 0.0000000000000000e+00  2.7971189221284719e+09 1.0494078246543439e+04 0.0000000000000000e+00  2.7974209285175900e+09 -1.3612453969968430e+04 0.0000000000000000e+00  2.1684600244364138e+09 -2.4482255779798474e+09 0.0000000000000000e+00  1.2457255452963359e+09 -2.4649946085257115e+09 0.0000000000000000e+00  7.2939799079967678e+08 -2.0117317323880539e+09 0.0000000000000000e+00  6.5550146548451293e+08 -1.7118699411000566e+09 0.0000000000000000e+00  7.3933191802872097e+08 -1.4264461620132105e+09 0.0000000000000000e+00  7.9599870745122361e+08 -1.2268035125504978e+09 0.0000000000000000e+00  9.3175005545827973e+08 -1.0582553362852457e+09 0.0000000000000000e+00  9.8806802837909412e+08 -9.5715068915430915e+08 0.0000000000000000e+00  1.0554289266262679e+09 -8.2950033188235068e+08 0.0000000000000000e+00  1.0879600187969062e+09 -7.4206480660457337e+08 0.0000000000000000e+00  1.2198481340706387e+09 -5.5711044647321284e+08 0.0000000000000000e+00  1.2480162580613110e+09 -4.5710382227705055e+08 0.0000000000000000e+00  1.3397251500950356e+09 -3.3022895426270378e+08 0.0000000000000000e+00  1.3862644932635956e+09 -2.5425242398633459e+08 0.0000000000000000e+00  1.5588078523993976e+09 -1.0532778629296583e+08 0.0000000000000000e+00  1.2663519324613240e+09 -2.0252561864906845e+09 0.0000000000000000e+00  7.0703691248017848e+08 -1.5878815232635727e+09 0.0000000000000000e+00  5.9734535698393810e+08 -5.5242085375902748e+08 0.0000000000000000e+00  1.0567151785153258e+09 1.5240436889060888e+08 0.0000000000000000e+00  1.9118170335624380e+09 4.4986545606985158e+08 0.0000000000000000e+00  2.6076703687861533e+09 7.5837047558876783e+07 0.0000000000000000e+00  2.5982407669482675e+09 -1.1017245174557688e+09 0.0000000000000000e+00  2.1852292531372385e+09 -1.7260189070966151e+09 0.0000000000000000e+00  1.5815044884248605e+09 -1.9509989755325584e+09 0.0000000000000000e+00  8.0421270355403972e+08 -1.6851748251708629e+09 0.0000000000000000e+00  4.7103159706113529e+08 -1.1228196480291049e+09 0.0000000000000000e+00  8.5099977667590439e+08 -1.0753743640556014e+08 0.0000000000000000e+00  1.4731245524036534e+09 3.7280054023038328e+08 0.0000000000000000e+00  2.2428349851807303e+09 3.5411944787651837e+08 0.0000000000000000e+00  2.7085136293694172e+09 -6.0765902968362617e+08 0.0000000000000000e+00  2.6640422290405893e+09 -1.0042926111304446e+09 0.0000000000000000e+00  1.7621028447184229e+09 -2.0239053660709021e+09 0.0000000000000000e+00  2.6894776713839593e+09 -7.3971582839358486e+06 0.0000000000000000e+00  2.7665356835480204e+09 -6.6850920672053620e+06 0.0000000000000000e+00  2.6648983040348644e+09 -8.8382282005910743e+06 0.0000000000000000e+00  2.3104375206425719e+09 -5.0972480655501872e+07 0.0000000000000000e+00  2.8040110750597711e+09 -1.1796522300714101e+06 0.0000000000000000e+00  2.3896113484483771e+09 -5.5609126084292516e+07 0.0000000000000000e+00  2.9811223126753521e+09 -5.4220560408580504e+07 0.0000000000000000e+00  2.7958611073434582e+09 -2.2599916945255772e+05 0.0000000000000000e+00  2.7698389458372602e+09 -1.4070527002417140e+07 0.0000000000000000e+00  2.8690292875179338e+09 -1.5867386479585806e+07 0.0000000000000000e+00  2.2391183846752582e+09 -7.6868717947311416e+07 0.0000000000000000e+00  2.7978532819346032e+09 -7.7216235630245370e+04 0.0000000000000000e+00  2.7521525891209497e+09 -2.2452478128048518e+08 0.0000000000000000e+00  2.6681826584919677e+09 -1.8493383912796959e+08 0.0000000000000000e+00  4.3607515423294353e+08 -2.7359557907454500e+09 0.0000000000000000e+00  2.7968616079877710e+09 1.3054022997543614e+04 0.0000000000000000e+00  1.9771732827683315e+09 -3.0534418880525328e+07 0.0000000000000000e+00  2.0452616052740066e+09 -4.5283179736372596e+08 0.0000000000000000e+00  2.1163851723357620e+09 -4.8663728217025149e+08 0.0000000000000000e+00  2.7079030447927256e+09 -3.4338397302664451e+07 0.0000000000000000e+00  2.8001534999421105e+09 -2.1205320188889887e+07 0.0000000000000000e+00  4.2885628224002190e+09 -2.3170703235446906e+08 0.0000000000000000e+00  2.7504022480484004e+09 -1.3063781887312885e+07 0.0000000000000000e+00  2.7061633679734774e+09 -1.1174095697795613e+08 0.0000000000000000e+00  2.7977076319870749e+09 -1.8521514454709915e+06 0.0000000000000000e+00  2.7972154351976800e+09 -2.9290415620904634e+04 0.0000000000000000e+00  2.7912687247376504e+09 -1.1343213790105842e+06 0.0000000000000000e+00  2.7972207245748243e+09 -3.0869035995494528e+05 0.0000000000000000e+00  2.4083309986438665e+09 -1.0294472607187997e+09 0.0000000000000000e+00  2.6620316891751966e+09 -1.8892027971318457e+07 0.0000000000000000e+00  2.5973954698594880e+09 -1.8050982494803302e+07 0.0000000000000000e+00  1.9549969322070622e+09 -3.9476954709625706e+07 0.0000000000000000e+00  1.8267439442073970e+09 -1.7088880064153898e+08 0.0000000000000000e+00  1.8466983258967977e+09 -1.7659510764234027e+08 0.0000000000000000e+00  2.6776922556500525e+09 -4.9229704782110155e+07 0.0000000000000000e+00  2.7651841746667881e+09 -5.2267977749107696e+07 0.0000000000000000e+00  2.7990303999683056e+09 -6.2567253999213781e+06 0.0000000000000000e+00  2.7991237823308048e+09 -3.5126851434003748e+05 0.0000000000000000e+00  2.5546950533981853e+09 -2.2921015891787305e+07 0.0000000000000000e+00  2.8186385890545688e+09 -3.5439662409582660e+06 0.0000000000000000e+00  2.7128243537015171e+09 -4.6210356741880514e+06 0.0000000000000000e+00  2.9319530407639704e+09 -5.6207888499797478e+07 0.0000000000000000e+00  3.1004130040978441e+09 -6.8265466407319173e+07 0.0000000000000000e+00  2.7975136459368129e+09 -1.0526089006541905e+05 0.0000000000000000e+00  1.4415907654775441e+09 -1.6120074546224844e+08 0.0000000000000000e+00  1.6240408052879343e+09 -1.1681017073738310e+09 0.0000000000000000e+00  2.5517111253042226e+09 -2.7552153774396861e+08 0.0000000000000000e+00  1.7105127207438645e+09 -6.4374393521630061e+08 0.0000000000000000e+00  1.3447556180435259e+09 -1.2389868599879453e+09 0.0000000000000000e+00  3.0513540546184211e+09 -4.4873508811092716e+08 0.0000000000000000e+00  2.7967917126034970e+09 -4.7551975332675857e+05 0.0000000000000000e+00  1.2817623756418307e+09 -1.4239861845245380e+09 0.0000000000000000e+00  1.6367842576249435e+09 -1.1188460711782036e+09 0.0000000000000000e+00  3.5817219631371632e+09 -3.2918757353034639e+09 0.0000000000000000e+00  2.7970994590790634e+09 -1.3584343697620327e+04 0.0000000000000000e+00  2.7970545538185420e+09 -2.3830090194491277e+04 0.0000000000000000e+00  1.7717367087813582e+09 -5.3052676365687579e+08 0.0000000000000000e+00  2.7950182616397862e+09 -3.1820001668661498e+06 0.0000000000000000e+00  2.7837555705336609e+09 -2.9613376714598723e+06 0.0000000000000000e+00  2.7206791358677254e+09 -4.2912974629765876e+07 0.0000000000000000e+00  2.6084006345946312e+09 -5.4674723477766812e+08 0.0000000000000000e+00  2.8275058047182503e+09 -5.2056937621926732e+07 0.0000000000000000e+00  2.7436639462012105e+09 -7.6640378558960438e+07 0.0000000000000000e+00  2.6884456294073653e+09 -4.7681096691494428e+07 0.0000000000000000e+00  2.3550184432543001e+09 -2.3912356600381115e+08 0.0000000000000000e+00  2.7293906428325772e+09 -6.0334364682267940e+08 0.0000000000000000e+00  2.4266267874891257e+09 -2.5355814034238905e+08 0.0000000000000000e+00  3.6725274245522618e+08 -1.0591781881167104e+09 0.0000000000000000e+00  2.7972855497988219e+09 -8.1942292640088679e+04 0.0000000000000000e+00  1.6623463043938468e+09 -3.8555383500143093e+08 0.0000000000000000e+00  2.4816848328099041e+09 -3.5130400938478872e+07 0.0000000000000000e+00  2.7973243573143086e+09 -7.4555627102149930e+05 0.0000000000000000e+00  2.7970165228644013e+09 -1.2658776458050059e+05 0.0000000000000000e+00  1.2004229705218225e+09 -1.5940514145784619e+09 0.0000000000000000e+00  2.1237469938558435e+09 -5.1770371985437497e+07 0.0000000000000000e+00  2.7922818408056736e+09 -9.2873330368503910e+06 0.0000000000000000e+00  2.7062197140625572e+09 -2.6525869989882104e+07 0.0000000000000000e+00  2.7282832990027599e+09 -2.8704280924882710e+07 0.0000000000000000e+00  2.7962835836974263e+09 -1.1677622981453617e+06 0.0000000000000000e+00  2.7813670829140201e+09 -1.9982967130977605e+07 0.0000000000000000e+00  1.5697754351074262e+09 -3.6436211336004746e+08 0.0000000000000000e+00  2.5547792888700809e+09 -3.9731715003702320e+07 0.0000000000000000e+00  1.3107676213569849e+09 -9.3002224219682670e+08 0.0000000000000000e+00  2.8189522768669581e+09 -1.8591005885747828e+07 0.0000000000000000e+00  2.8432998381006532e+09 -1.7545708048565257e+08 0.0000000000000000e+00  1.9796127088019123e+09 -2.3135470820331785e+08 0.0000000000000000e+00  2.7980467327802835e+09 -7.5731440865890018e+05 0.0000000000000000e+00  2.8994701926522732e+09 -9.4333911578941688e+07 0.0000000000000000e+00  2.0005290783942199e+09 -1.8953647378517509e+08 0.0000000000000000e+00  2.1706471189340911e+09 -3.9352915897230208e+07 0.0000000000000000e+00  2.8069298056541958e+09 -8.3313742807987221e+06 0.0000000000000000e+00  2.7997720359071674e+09 -2.1146482204581355e+06 0.0000000000000000e+00  2.7974998124496837e+09 -3.3828678659789148e+05 0.0000000000000000e+00  2.2087550419002571e+09 -4.3437014151501250e+08 0.0000000000000000e+00  2.6187351463829799e+09 -1.7657679181629732e+07 0.0000000000000000e+00  2.5981451571144457e+09 -1.0874086962328692e+08 0.0000000000000000e+00  2.6174875107542658e+09 -7.7252348917352393e+07 0.0000000000000000e+00  2.5141879008315692e+09 -1.4956653901896518e+08 0.0000000000000000e+00  2.6967002210728974e+09 -9.2717549386241183e+07 0.0000000000000000e+00  2.9373162229732304e+09 -2.8360625490542316e+08 0.0000000000000000e+00  2.8718093399857917e+09 -2.6362540640481493e+08 0.0000000000000000e+00  2.7941248171887269e+09 -6.7321240381854784e+05 0.0000000000000000e+00  1.3263372359081562e+09 -5.4421354065483942e+09 0.0000000000000000e+00  6.9503542632199173e+09 -3.5451736326623640e+09 0.0000000000000000e+00  2.7965044844771395e+09 -7.4607479650499212e+04 0.0000000000000000e+00  3.2852937161007466e+09 -1.1681823178764935e+08 0.0000000000000000e+00  2.7362908349454231e+09 -1.4129581415458316e+07 0.0000000000000000e+00  2.6578689442442708e+09 -9.5328006483095903e+06 0.0000000000000000e+00  1.8058034254370549e+09 -3.1145370482612491e+07 0.0000000000000000e+00  1.7799906946020606e+09 -4.4305316064469099e+07 0.0000000000000000e+00  2.7972706567367592e+09 -9.4290126684915194e+03 0.0000000000000000e+00  2.7199057438945732e+09 -7.6880065320484350e+06 0.0000000000000000e+00  2.7766610024056554e+09 -7.2509522099376127e+07 0.0000000000000000e+00  1.9419984918953516e+09 -2.3032235772445887e+08 0.0000000000000000e+00  2.2022167889358373e+09 -2.1300305502102721e+08 0.0000000000000000e+00  1.2710237778464928e+09 -1.6836685650000565e+09 0.0000000000000000e+00  1.7540340205708303e+09 -1.7829363978125212e+08 0.0000000000000000e+00  2.6113200620702939e+09 -1.6514522365546644e+08 0.0000000000000000e+00  2.7010855775113773e+09 -2.3261442922412284e+07 0.0000000000000000e+00  3.5166677875559630e+09 -1.0872227864715793e+09 0.0000000000000000e+00  1.3826421888175483e+09 -9.5679462026295865e+08 0.0000000000000000e+00  2.8027522973828220e+09 -1.0339660868007323e+08 0.0000000000000000e+00  1.4077727836902270e+09 -8.0454745402712607e+08 0.0000000000000000e+00  2.7132792715635958e+09 -4.9992994301121667e+07 0.0000000000000000e+00  2.2592706731895609e+09 -9.5502818650711071e+08 0.0000000000000000e+00  1.8026092017788162e+09 -1.0278581626633301e+09 0.0000000000000000e+00  2.8413684975879946e+09 -8.4660724841710757e+06 0.0000000000000000e+00  2.8195545600662875e+09 -1.8981055656734746e+07 0.0000000000000000e+00  2.3643140720019441e+09 -1.1301284989539309e+09 0.0000000000000000e+00  2.7971777768113503e+09 -1.1468455037116351e+05 0.0000000000000000e+00  1.8243652667374077e+09 -1.1482645364564307e+09 0.0000000000000000e+00  1.5082557206951001e+09 -2.1340386719228144e+09 0.0000000000000000e+00  1.2009059953491955e+09 -1.6060652839267366e+09 0.0000000000000000e+00  2.8306019716033878e+09 -2.3658206968513742e+07 0.0000000000000000e+00  2.0090909089063346e+09 -2.1283325347473848e+08 0.0000000000000000e+00  2.4313708205358028e+09 -5.0800879483806729e+07 0.0000000000000000e+00  2.5446080712555790e+09 -3.0862537760733324e+08 0.0000000000000000e+00  1.8788286083079417e+09 -2.9646978969407350e+08 0.0000000000000000e+00  2.6804147493610454e+09 -2.1056473586189765e+07 0.0000000000000000e+00  2.7915085769068646e+09 -3.8056864410560153e+07 0.0000000000000000e+00  2.6909227029573822e+09 -1.0199834909836933e+08 0.0000000000000000e+00  1.7273549084735007e+09 -1.5964783366840178e+08 0.0000000000000000e+00  1.9009885760711889e+09 -9.5724083156062096e+07 0.0000000000000000e+00  2.7656750604340329e+09 -3.5550287693167341e+08 0.0000000000000000e+00  1.8652400335372767e+09 -1.0258441230211222e+08 0.0000000000000000e+00  1.7202122531830907e+09 -6.0276910755669270e+06 0.0000000000000000e+00  2.7973656540763378e+09 -1.9092266300248419e+05 0.0000000000000000e+00  2.7557382740629349e+09 -1.9538064342796039e+07 0.0000000000000000e+00  8.2817145282673669e+08 -2.0829639946059734e+08 0.0000000000000000e+00  1.2430232176765265e+09 -1.6141333988766685e+09 0.0000000000000000e+00  1.8036907832950566e+09 -8.6980535501247555e+07 0.0000000000000000e+00  2.2408176307422228e+09 -1.2573545854671271e+08 0.0000000000000000e+00  1.0553807484608061e+09 -1.4041048277004631e+09 0.0000000000000000e+00  3.5208576493503470e+09 -3.0442475853100705e+08 0.0000000000000000e+00  2.6455349501677670e+09 -5.3556104709285788e+07 0.0000000000000000e+00  2.6975198240782390e+09 -3.7709352601437017e+07 0.0000000000000000e+00  2.7972809210415292e+09 -1.7655073347728285e+04 0.0000000000000000e+00  2.7908237705203290e+09 -4.6117756237847246e+06 0.0000000000000000e+00  2.7303092339266915e+09 -2.0667197436901826e+07 0.0000000000000000e+00  2.4728540180124302e+09 -1.1381800423556811e+08 0.0000000000000000e+00  2.7679129605159888e+09 -1.5124830213775423e+08 0.0000000000000000e+00  2.3853859579630194e+09 -1.9029203497926646e+08 0.0000000000000000e+00  2.5454818305059538e+09 -5.5311141425999641e+08 0.0000000000000000e+00  2.6525441943163099e+09 -1.9094927995462224e+08 0.0000000000000000e+00  2.6257125019163785e+09 -3.2270437600287926e+08 0.0000000000000000e+00  1.8844473770496280e+09 -7.4204505286454237e+08 0.0000000000000000e+00  3.2853501696159167e+09 -2.4679065547124529e+08 0.0000000000000000e+00  3.1127029805636287e+09 -6.4593828121064544e+08 0.0000000000000000e+00  2.7975543639695492e+09 -7.5629313179820587e+04 0.0000000000000000e+00  2.8004831839820051e+09 -1.1824288831160350e+07 0.0000000000000000e+00  2.7971736128527193e+09 -3.7346153433094923e+06 0.0000000000000000e+00  2.8027909394792514e+09 -4.2312413776088292e+06 0.0000000000000000e+00  1.4103632703538375e+09 -6.5909049669980490e+08 0.0000000000000000e+00  1.0961948019065154e+09 -9.6128750149686742e+08 0.0000000000000000e+00  1.6167409994046044e+09 -1.9711323905623403e+09 0.0000000000000000e+00  1.6194080568950837e+09 -2.9730384147277170e+08 0.0000000000000000e+00  2.1712158774772091e+09 -2.8278988986871117e+08 0.0000000000000000e+00  1.4632133699265196e+09 -4.9667545481232673e+08 0.0000000000000000e+00  2.7971194511804295e+09 -4.3056686496296679e+04 0.0000000000000000e+00  2.7969153321154399e+09 -1.7288594009836364e+05 0.0000000000000000e+00  1.8454169917623055e+09 -1.1606058294385798e+08 0.0000000000000000e+00  2.8089064394793792e+09 -1.8422599357781438e+06 0.0000000000000000e+00  2.9285702525123086e+09 -3.2300717595424797e+07 0.0000000000000000e+00  2.7983120534700103e+09 -1.4396670295556245e+05 0.0000000000000000e+00  2.7339982431983414e+09 -6.1007050968594011e+06 0.0000000000000000e+00  2.8009332103474355e+09 -6.0258510280988028e+05 0.0000000000000000e+00  2.6909933880295205e+09 -5.9788153175249286e+06 0.0000000000000000e+00  2.7878808776905637e+09 -6.6838285891607441e+06 0.0000000000000000e+00  2.0053607015989914e+09 -1.7592530199902668e+09 0.0000000000000000e+00  1.7780676300840669e+09 -4.8706430678373319e+08 0.0000000000000000e+00  2.5522366602293296e+09 -5.2951909776305638e+07 0.0000000000000000e+00  1.9898703921427925e+09 -7.7211777174401486e+08 0.0000000000000000e+00  1.1565690259264767e+09 -7.0206774536540520e+08 0.0000000000000000e+00  1.2393063557146151e+09 -1.4485997481659529e+09 0.0000000000000000e+00  1.0754188485464776e+09 -1.1379516086757586e+09 0.0000000000000000e+00  2.7019890341950660e+09 -3.7556575736069590e+07 0.0000000000000000e+00  2.4168965923310513e+09 -9.6307574305146724e+07 0.0000000000000000e+00  2.6371574388888297e+09 -6.5256544137524210e+07 0.0000000000000000e+00  2.7961548799449925e+09 -2.5578294563198322e+06 0.0000000000000000e+00  3.1115239060494914e+09 -9.1658868683026147e+08 0.0000000000000000e+00  1.0243482601542614e+09 -1.5357015434408448e+09 0.0000000000000000e+00  2.7091960979345198e+09 -3.5149222696843885e+07 0.0000000000000000e+00  2.7068474787625294e+09 -6.6404259495093636e+07 0.0000000000000000e+00  2.7959051912869463e+09 -6.1701012939012563e+06 0.0000000000000000e+00  2.6462720673154287e+09 -3.9931391180774681e+07 0.0000000000000000e+00  2.7296381029570899e+09 -4.0474649527576588e+07 0.0000000000000000e+00  2.3001703230530949e+09 -4.9453179639167351e+08 0.0000000000000000e+00  1.8624616322848642e+09 -2.4004829954712519e+08 0.0000000000000000e+00  2.0762346812729125e+09 -1.3320917351513235e+08 0.0000000000000000e+00  2.8472063880154352e+09 -6.9512508986842737e+07 0.0000000000000000e+00  2.7951082525318208e+09 -1.4519418440465957e+06 0.0000000000000000e+00  2.1805067379489350e+09 -7.1435772834878159e+08 0.0000000000000000e+00  1.1727499905293713e+09 -9.9932758963181019e+08 0.0000000000000000e+00  1.6252898391039603e+09 -2.9666031675226909e+08 0.0000000000000000e+00  2.5841018525258312e+09 -1.6794765326253176e+09 0.0000000000000000e+00  1.6055687647765636e+09 -1.5845886449080276e+09 0.0000000000000000e+00  2.8467578388007431e+09 -8.0276252205619371e+08 0.0000000000000000e+00  2.7970573941428852e+09 -4.5296057410954661e+05 0.0000000000000000e+00  3.0492886278503242e+09 -1.6630268107299006e+08 0.0000000000000000e+00  2.7963314481123662e+09 -5.4587364611087274e+05 0.0000000000000000e+00  4.7003485785000019e+09 -1.4045847944493210e+09 0.0000000000000000e+00  4.8637236312882748e+09 -6.5543588657038193e+09 0.0000000000000000e+00  1.6349048481554747e+09 -1.5459711807885184e+09 0.0000000000000000e+00  1.9293322546919043e+09 -3.4853943988569844e+08 0.0000000000000000e+00  2.3915521221835985e+09 -4.9381688163607067e+08 0.0000000000000000e+00  2.8530671568799601e+09 -1.9149650073800689e+08 0.0000000000000000e+00  2.3473384006904163e+09 -1.4826488218865547e+08 0.0000000000000000e+00  2.8442841489393888e+09 -2.4458397721159719e+07 0.0000000000000000e+00  2.7575913573915620e+09 -3.3311505558812987e+07 0.0000000000000000e+00  2.7790328773778811